 &FCI NORB=   30,NELEC=  4,MS2=  0
  ORBSYM=1,1,1,1,1,1,1,1,1,1,1,1,1,1,1,1,1,1,1,1,1,1,1,1,1,1,1,1,1,1 
  $END
   2.3386878761636942E+00    1   1   1   1
  -2.1242387412755359E-01    2   1   1   1
   3.0606710177701068E-02    2   1   2   1
  -7.2391680755146135E-03    2   1   2   2
   4.9835950886502589E-01    2   2   1   1
  -7.2391680755146681E-03    2   2   2   1
   3.4919559221531166E-01    2   2   2   2
   2.3386878761636951E+00    3   3   1   1
  -2.1242387412755384E-01    3   3   2   1
   4.9835950886502578E-01    3   3   2   2
   2.3405080715717337E+00    3   3   3   3
   5.7629766263198108E-02    4   1   4   1
  -1.1502960779227646E-02    4   1   4   2
  -1.1502960779227633E-02    4   2   4   1
   5.5110942781607707E-03    4   2   4   2
   2.3386878761636951E+00    4   4   1   1
  -2.1242387412755384E-01    4   4   2   1
   4.9835950886502578E-01    4   4   2   2
   2.3350474853476233E+00    4   4   3   3
   2.3459686577958441E+00    4   4   4   4
  -5.7629766263198108E-02    5   1   3   1
   1.1502960779227646E-02    5   1   3   2
   1.1502960779227633E-02    5   2   3   1
  -5.5110942781607707E-03    5   2   3   2
   2.3386878761636951E+00    5   5   1   1
  -2.1242387412755384E-01    5   5   2   1
   4.9835950886502578E-01    5   5   2   2
   2.3405080715717337E+00    5   5   3   3
   2.3350474853476233E+00    5   5   4   4
   2.3405080715717337E+00    5   5   5   5
  -8.0213082040725095E-02    6   1   1   1
   1.1666004735357654E-02    6   1   2   1
  -2.6523707863863495E-03    6   1   2   2
  -8.0213082040725137E-02    6   1   3   3
  -8.0213082040725137E-02    6   1   4   4
  -8.0213082040725137E-02    6   1   5   5
   4.4481086915733256E-03    6   1   6   1
  -1.0202371095278430E-03    6   1   6   2
  -3.9268329792243662E-04    6   1   6   6
   9.8064151927560475E-02    6   2   1   1
  -2.7792938690670600E-03    6   2   2   1
   4.5812780269600492E-02    6   2   2   2
   9.8064151927560517E-02    6   2   3   3
   9.8064151927560517E-02    6   2   4   4
   9.8064151927560517E-02    6   2   5   5
  -1.0202371095278443E-03    6   2   6   1
   1.1828119884313324E-02    6   2   6   2
   5.3918364237573388E-03    6   2   6   6
   5.6943825238863965E-03    6   3   3   1
  -3.1064215561561991E-03    6   3   3   2
  -1.7991789446379124E-03    6   3   6   5
   5.6943825238863965E-03    6   4   4   1
  -3.1064215561561991E-03    6   4   4   2
   1.7991789446379124E-03    6   4   6   4
   5.6943825238863965E-03    6   5   5   1
  -3.1064215561561991E-03    6   5   5   2
  -1.7991789446379124E-03    6   5   6   3
   1.6519834678935980E-01    6   6   1   1
  -1.0682725611612604E-03    6   6   2   1
   1.4579524407752339E-01    6   6   2   2
   1.6519834678935988E-01    6   6   3   3
   1.6519834678935988E-01    6   6   4   4
   1.6519834678935988E-01    6   6   5   5
  -3.9268329792243597E-04    6   6   6   1
   5.3918364237573431E-03    6   6   6   2
   1.1034522466638129E-01    6   6   6   6
   1.1502960779227633E-02    7   1   5   1
  -5.5110942781607707E-03    7   1   5   2
  -3.1064215561561917E-03    7   1   6   3
  -1.7167115143649554E-02    7   2   5   1
  -1.3454104831732182E-03    7   2   5   2
  -7.6796576105388236E-04    7   2   6   3
  -2.1242387412755367E-01    7   3   1   1
   3.0606710177701082E-02    7   3   2   1
  -7.2391680755146169E-03    7   3   2   2
  -2.1206072648208310E-01    7   3   3   3
  -2.1315016941849524E-01    7   3   4   4
  -2.1206072648208310E-01    7   3   5   5
   1.1666004735357657E-02    7   3   6   1
  -2.7792938690670626E-03    7   3   6   2
  -1.0682725611612584E-03    7   3   6   6
   3.0896212040530002E-02    7   3   7   3
  -7.3241567001569533E-03    7   3   7   7
   1.0894429364121535E-03    7   4   4   3
  -1.0894429364121535E-03    7   4   5   4
   2.1788858728243065E-03    7   5   5   3
   6.8477141279745420E-03    7   6   5   1
  -5.0510435736098155E-04    7   6   5   2
  -1.4614404418422956E-04    7   6   6   3
   4.9835950886502611E-01    7   7   1   1
  -7.2391680755146716E-03    7   7   2   1
   3.4919559221531182E-01    7   7   2   2
   4.9908119824775693E-01    7   7   3   3
   4.9691613009956548E-01    7   7   4   4
   4.9908119824775693E-01    7   7   5   5
  -2.6523707863863786E-03    7   7   6   1
   4.5812780269600471E-02    7   7   6   2
   1.4579524407752309E-01    7   7   6   6
  -7.3241567001570080E-03    7   7   7   3
   3.5006014319415413E-01    7   7   7   7
  -1.1502960779227633E-02    8   1   4   1
   5.5110942781607707E-03    8   1   4   2
  -3.1064215561561917E-03    8   1   6   4
   5.5110942781607698E-03    8   1   8   1
   1.3454104831732221E-03    8   1   8   2
   5.0510435736098047E-04    8   1   8   6
   1.7167115143649554E-02    8   2   4   1
   1.3454104831732182E-03    8   2   4   2
  -7.6796576105388236E-04    8   2   6   4
   1.3454104831732182E-03    8   2   8   1
   1.9438642898043382E-02    8   2   8   2
  -2.9344624716770048E-03    8   2   8   6
   8.6850558848669611E-04    8   3   7   4
  -8.6850558848669611E-04    8   3   8   5
  -2.1242387412755367E-01    8   4   1   1
   3.0606710177701082E-02    8   4   2   1
  -7.2391680755146169E-03    8   4   2   2
  -2.1315016941849524E-01    8   4   3   3
  -2.1097128354567093E-01    8   4   4   4
  -2.1315016941849524E-01    8   4   5   5
   1.1666004735357657E-02    8   4   6   1
  -2.7792938690670626E-03    8   4   6   2
  -1.0682725611612584E-03    8   4   6   6
   3.0027706452043303E-02    8   4   7   3
  -7.0691908262299563E-03    8   4   7   7
   3.1764717629016698E-02    8   4   8   4
  -7.5791225740839503E-03    8   4   8   8
  -1.0894429364121535E-03    8   5   4   3
   1.0894429364121535E-03    8   5   5   4
  -8.6850558848669611E-04    8   5   8   3
   2.5496587392699681E-04    8   5   8   7
  -6.8477141279745420E-03    8   6   4   1
   5.0510435736098155E-04    8   6   4   2
  -1.4614404418422956E-04    8   6   6   4
   5.0510435736098166E-04    8   6   8   1
  -2.9344624716770035E-03    8   6   8   2
   2.1391610423698408E-03    8   6   8   6
  -2.5496587392699615E-04    8   7   7   4
   2.5496587392699615E-04    8   7   8   5
   4.9835950886502611E-01    8   8   1   1
  -7.2391680755146716E-03    8   8   2   1
   3.4919559221531182E-01    8   8   2   2
   4.9691613009956548E-01    8   8   3   3
   5.0124626639594838E-01    8   8   4   4
   4.9691613009956548E-01    8   8   5   5
  -2.6523707863863786E-03    8   8   6   1
   4.5812780269600471E-02    8   8   6   2
   1.4579524407752309E-01    8   8   6   6
  -7.0691908262300119E-03    8   8   7   3
   3.4746649025762788E-01    8   8   7   7
  -7.5791225740840041E-03    8   8   8   4
   3.5265379613068037E-01    8   8   8   8
   1.1502960779227633E-02    9   1   3   1
  -5.5110942781607707E-03    9   1   3   2
  -3.1064215561561917E-03    9   1   6   5
  -5.5110942781607698E-03    9   1   7   1
  -1.3454104831732221E-03    9   1   7   2
  -5.0510435736098047E-04    9   1   7   6
  -1.7167115143649554E-02    9   2   3   1
  -1.3454104831732182E-03    9   2   3   2
  -7.6796576105388236E-04    9   2   6   5
  -1.3454104831732182E-03    9   2   7   1
  -1.9438642898043382E-02    9   2   7   2
   2.9344624716770048E-03    9   2   7   6
   1.7370111769733918E-03    9   3   7   5
  -8.6850558848669611E-04    9   4   7   4
   8.6850558848669611E-04    9   4   8   5
  -2.1242387412755367E-01    9   5   1   1
   3.0606710177701082E-02    9   5   2   1
  -7.2391680755146169E-03    9   5   2   2
  -2.1206072648208310E-01    9   5   3   3
  -2.1315016941849524E-01    9   5   4   4
  -2.1206072648208310E-01    9   5   5   5
   1.1666004735357657E-02    9   5   6   1
  -2.7792938690670626E-03    9   5   6   2
  -1.0682725611612584E-03    9   5   6   6
   3.0896212040530002E-02    9   5   7   3
  -7.3241567001569533E-03    9   5   7   7
   3.0027706452043303E-02    9   5   8   4
  -7.0691908262299563E-03    9   5   8   8
   3.0896212040530002E-02    9   5   9   5
  -7.3241567001569533E-03    9   5   9   9
   6.8477141279745420E-03    9   6   3   1
  -5.0510435736098155E-04    9   6   3   2
  -1.4614404418422956E-04    9   6   6   5
  -5.0510435736098166E-04    9   6   7   1
   2.9344624716770035E-03    9   6   7   2
  -2.1391610423698408E-03    9   6   7   6
  -5.0993174785399220E-04    9   7   7   5
   2.5496587392699615E-04    9   8   7   4
  -2.5496587392699615E-04    9   8   8   5
   4.9835950886502611E-01    9   9   1   1
  -7.2391680755146716E-03    9   9   2   1
   3.4919559221531182E-01    9   9   2   2
   4.9908119824775693E-01    9   9   3   3
   4.9691613009956548E-01    9   9   4   4
   4.9908119824775693E-01    9   9   5   5
  -2.6523707863863786E-03    9   9   6   1
   4.5812780269600471E-02    9   9   6   2
   1.4579524407752309E-01    9   9   6   6
  -7.3241567001570080E-03    9   9   7   3
   3.5006014319415413E-01    9   9   7   7
  -7.0691908262300119E-03    9   9   8   4
   3.4746649025762788E-01    9   9   8   8
  -7.3241567001570080E-03    9   9   9   5
   3.5006014319415413E-01    9   9   9   9
  -9.9696208404908299E-03   10   1   5   3
  -1.9890415712920093E-03   10   1   9   3
  -3.9528555443347083E-03   10   1   9   7
  -1.9890415712920076E-03   10   2   5   3
  -1.5856670071115408E-03   10   2   9   3
   4.6550186847944781E-04   10   2   9   7
  -6.3130245932207618E-02   10   3   5   1
   1.2600862193760368E-02   10   3   5   2
   6.2378835187915814E-03   10   3   6   3
   1.2600862193760371E-02   10   3   9   1
  -1.8805632422930797E-02   10   3   9   2
   7.5012949904769569E-03   10   3   9   6
   7.7016963347627644E-04   10   6   5   3
   9.4546684886701266E-04   10   6   9   3
  -2.5726722261114533E-04   10   6   9   7
   1.2600862193760356E-02   10   7   5   1
  -6.0371013053726096E-03   10   7   5   2
  -3.4029143188540950E-03   10   7   6   3
  -6.0371013053726079E-03   10   7   9   1
  -1.4738233414757970E-03   10   7   9   2
  -5.5331410084151912E-04   10   7   9   6
   2.3386878761636938E+00   10  10   1   1
  -2.1242387412755370E-01   10  10   2   1
   4.9835950886502545E-01   10  10   2   2
   2.3412881553180331E+00   10  10   3   3
   2.3334873178550182E+00   10  10   4   4
   2.3412881553180331E+00   10  10   5   5
  -8.0213082040725248E-02   10  10   6   1
   9.8064151927560420E-02   10  10   6   2
   1.6519834678935974E-01   10  10   6   6
  -2.1190509177688135E-01   10  10   7   3
   4.9939049369749783E-01   10  10   7   7
  -2.1346143882889873E-01   10  10   8   4
   4.9629753920008141E-01   10  10   8   8
  -2.1190509177688135E-01   10  10   9   5
   4.9939049369749783E-01   10  10   9   9
   2.3424323978834529E+00   10  10  10  10
   7.0495865021697945E-03   11   1   4   3
  -7.0495865021697945E-03   11   1   5   4
   1.4064647831225257E-03   11   1   8   3
   2.7950909604499141E-03   11   1   8   7
  -1.4064647831225257E-03   11   1   9   4
  -2.7950909604499141E-03   11   1   9   8
   7.1211577432077405E-03   11   1  11  10
   1.4064647831225246E-03   11   2   4   3
  -1.4064647831225246E-03   11   2   5   4
   1.1212358934323480E-03   11   2   8   3
  -3.2915952785682600E-04   11   2   8   7
  -1.1212358934323480E-03   11   2   9   4
   3.2915952785682600E-04   11   2   9   8
   1.4207439794942922E-03   11   2  11  10
   4.4639824996638454E-02   11   3   4   1
  -8.9101551060051520E-03   11   3   4   2
   4.4108497363893303E-03   11   3   6   4
  -8.9101551060051538E-03   11   3   8   1
   1.3297590210755970E-02   11   3   8   2
  -5.3042165554469346E-03   11   3   8   6
   3.5409289865595835E-02   11   3  11   3
  -6.7348869105608566E-03   11   3  11   7
  -4.4639824996638454E-02   11   4   5   1
   8.9101551060051520E-03   11   4   5   2
   4.4108497363893303E-03   11   4   6   3
   8.9101551060051538E-03   11   4   9   1
  -1.3297590210755970E-02   11   4   9   2
   5.3042165554469346E-03   11   4   9   6
  -5.4459217049503301E-04   11   6   4   3
   5.4459217049503301E-04   11   6   5   4
  -6.6854602022094146E-04   11   6   8   3
   1.8191539768536998E-04   11   6   8   7
   6.6854602022094146E-04   11   6   9   4
  -1.8191539768536998E-04   11   6   9   8
  -5.5012116676876925E-04   11   6  11  10
  -8.9101551060051416E-03   11   7   4   1
   4.2688752717391296E-03   11   7   4   2
  -2.4062237906585320E-03   11   7   6   4
   4.2688752717391287E-03   11   7   8   1
   1.0421504790285527E-03   11   7   8   2
   3.9125215283117531E-04   11   7   8   6
  -6.7348869105608496E-03   11   7  11   3
   3.4752449206060295E-03   11   7  11   7
   8.9101551060051416E-03   11   8   5   1
  -4.2688752717391296E-03   11   8   5   2
  -2.4062237906585320E-03   11   8   6   3
  -4.2688752717391287E-03   11   8   9   1
  -1.0421504790285527E-03   11   8   9   2
  -3.9125215283117531E-04   11   8   9   6
   1.1005035543611701E-03   11  10   7   4
  -1.1005035543611701E-03   11  10   8   5
   7.1211577432077396E-03   11  10  11   1
   1.4207439794942931E-03   11  10  11   2
  -5.5012116676877033E-04   11  10  11   6
   2.3386878761636938E+00   11  11   1   1
  -2.1242387412755370E-01   11  11   2   1
   4.9835950886502545E-01   11  11   2   2
   2.3373877365865257E+00   11  11   3   3
   2.3412881553180331E+00   11  11   4   4
   2.3373877365865257E+00   11  11   5   5
  -8.0213082040725248E-02   11  11   6   1
   9.8064151927560420E-02   11  11   6   2
   1.6519834678935974E-01   11  11   6   6
  -2.1268326530289003E-01   11  11   7   3
   4.9784401644878962E-01   11  11   7   7
  -2.1190509177688135E-01   11  11   8   4
   4.9939049369749783E-01   11  11   8   8
  -2.1268326530289003E-01   11  11   9   5
   4.9784401644878962E-01   11  11   9   9
   2.3367111850563420E+00   11  11  10  10
   2.3400939427072487E+00   11  11  11  11
  -4.0700806647032840E-03   12   1   3   3
   8.1401613294065679E-03   12   1   4   4
  -4.0700806647032840E-03   12   1   5   5
  -8.1202282114151896E-04   12   1   7   3
  -1.6137465184252477E-03   12   1   7   7
   1.6240456422830379E-03   12   1   8   4
   3.2274930368504954E-03   12   1   8   8
  -8.1202282114151896E-04   12   1   9   5
  -1.6137465184252477E-03   12   1   9   9
  -5.8144009495761199E-03   12   1  10  10
   2.9072004747880600E-03   12   1  11  11
   9.1009770401840676E-03   12   1  12   1
   1.8157382273535890E-03   12   1  12   2
  -7.0306546893407224E-04   12   1  12   6
   5.8144009495761199E-03   12   1  12  12
  -8.1202282114151841E-04   12   2   3   3
   1.6240456422830368E-03   12   2   4   4
  -8.1202282114151841E-04   12   2   5   5
  -6.4734584489823689E-04   12   2   7   3
   1.9004034201446866E-04   12   2   7   7
   1.2946916897964738E-03   12   2   8   4
  -3.8008068402893731E-04   12   2   8   8
  -6.4734584489823689E-04   12   2   9   5
   1.9004034201446866E-04   12   2   9   9
  -1.1600326016307405E-03   12   2  10  10
   5.8001630081537026E-04   12   2  11  11
   1.8157382273535875E-03   12   2  12   1
   1.4475093141444924E-03   12   2  12   2
  -8.6308920082964961E-04   12   2  12   6
   1.1600326016307405E-03   12   2  12  12
  -2.5772814978387005E-02   12   3   3   1
   5.1442804489733943E-03   12   3   3   2
   2.5466052826593694E-03   12   3   6   5
   5.1442804489733951E-03   12   3   7   1
  -7.6773672877532935E-03   12   3   7   2
   3.0623908561273577E-03   12   3   7   6
  -2.8911564108337777E-02   12   3  10   3
   5.4990121354078344E-03   12   3  10   7
  -1.8043431053316968E-02   12   3  11   4
   4.3701574239983793E-03   12   3  11   8
  -1.3188813467993556E-02   12   3  12   5
   1.9668130418940659E-03   12   3  12   9
   5.1545629956774010E-02   12   4   4   1
  -1.0288560897946789E-02   12   4   4   2
   5.0932105653187388E-03   12   4   6   4
  -1.0288560897946790E-02   12   4   8   1
   1.5354734575506587E-02   12   4   8   2
  -6.1247817122547154E-03   12   4   8   6
   3.8486994089032209E-02   12   4  11   3
  -8.2585461947723773E-03   12   4  11   7
   4.8598103333589403E-02   12   4  12   4
  -8.7016999524549225E-03   12   4  12   8
  -2.5772814978387005E-02   12   5   5   1
   5.1442804489733943E-03   12   5   5   2
   2.5466052826593694E-03   12   5   6   3
   5.1442804489733951E-03   12   5   9   1
  -7.6773672877532935E-03   12   5   9   2
   3.0623908561273577E-03   12   5   9   6
  -1.3188813467993556E-02   12   5  12   3
   1.9668130418940659E-03   12   5  12   7
   3.1442043623386992E-04   12   6   3   3
  -6.2884087246773985E-04   12   6   4   4
   3.1442043623386992E-04   12   6   5   5
   3.8598522474021362E-04   12   6   7   3
  -1.0502890382338621E-04   12   6   7   7
  -7.7197044948042724E-04   12   6   8   4
   2.1005780764677242E-04   12   6   8   8
   3.8598522474021362E-04   12   6   9   5
  -1.0502890382338621E-04   12   6   9   9
   4.4917205176267131E-04   12   6  10  10
  -2.2458602588133566E-04   12   6  11  11
  -7.0306546893407072E-04   12   6  12   1
  -8.6308920082965080E-04   12   6  12   2
   5.7272442204952417E-04   12   6  12   6
  -4.4917205176267131E-04   12   6  12  12
   5.1442804489733891E-03   12   7   3   1
  -2.4646362872755242E-03   12   7   3   2
  -1.3892339532671852E-03   12   7   6   5
  -2.4646362872755238E-03   12   7   7   1
  -6.0168585960323248E-04   12   7   7   2
  -2.2588953575809975E-04   12   7   7   6
   5.4990121354078301E-03   12   7  10   3
  -2.8375255955612692E-03   12   7  10   7
   4.3701574239983741E-03   12   7  11   4
  -1.5197609334295014E-03   12   7  11   8
   1.9668130418940646E-03   12   7  12   5
  -1.4393955630512868E-03   12   7  12   9
  -1.0288560897946778E-02   12   8   4   1
   4.9292725745510484E-03   12   8   4   2
  -2.7784679065343703E-03   12   8   6   4
   4.9292725745510475E-03   12   8   8   1
   1.2033717192064650E-03   12   8   8   2
   4.5177907151619951E-04   12   8   8   6
  -8.2585461947723687E-03   12   8  11   3
   3.5261945238412723E-03   12   8  11   7
  -8.7016999524549155E-03   12   8  12   4
   4.9146404836573170E-03   12   8  12   8
   5.1442804489733891E-03   12   9   5   1
  -2.4646362872755242E-03   12   9   5   2
  -1.3892339532671852E-03   12   9   6   3
  -2.4646362872755238E-03   12   9   9   1
  -6.0168585960323248E-04   12   9   9   2
  -2.2588953575809975E-04   12   9   9   6
   1.9668130418940646E-03   12   9  12   3
  -1.4393955630512868E-03   12   9  12   7
   1.2707520467091227E-03   12  10   7   5
  -5.8144009495761199E-03   12  10  10   1
  -1.1600326016307414E-03   12  10  10   2
   4.4917205176267229E-04   12  10  10   6
   4.4927869471735250E-04   12  11   7   4
  -4.4927869471735250E-04   12  11   8   5
   2.9072004747880600E-03   12  11  11   1
   5.8001630081537070E-04   12  11  11   2
  -2.2458602588133614E-04   12  11  11   6
   2.3386878761636938E+00   12  12   1   1
  -2.1242387412755373E-01   12  12   2   1
   4.9835950886502550E-01   12  12   2   2
   2.3360875970093562E+00   12  12   3   3
   2.3438884344723712E+00   12  12   4   4
   2.3360875970093562E+00   12  12   5   5
  -8.0213082040725248E-02   12  12   6   1
   9.8064151927560433E-02   12  12   6   2
   1.6519834678935974E-01   12  12   6   6
  -2.1294265647822627E-01   12  12   7   3
   4.9732852403255351E-01   12  12   7   7
  -2.1138630942620890E-01   12  12   8   4
   5.0042147852996999E-01   12  12   8   8
  -2.1294265647822627E-01   12  12   9   5
   4.9732852403255351E-01   12  12   9   9
   2.3351522149388733E+00   12  12  10  10
   2.3398291252912822E+00   12  12  11  11
   5.8144009495761199E-03   12  12  12   1
   1.1600326016307414E-03   12  12  12   2
  -4.4917205176267229E-04   12  12  12   6
   2.3434767003581558E+00   12  12  12  12
  -1.4064647831225257E-03   13   1   7   4
   1.4064647831225257E-03   13   1   8   5
  -9.1009770401840676E-03   13   1  11   1
  -1.8157382273535890E-03   13   1  11   2
   7.0306546893407224E-04   13   1  11   6
  -1.1212358934323480E-03   13   2   7   4
   1.1212358934323480E-03   13   2   8   5
  -1.8157382273535875E-03   13   2  11   1
  -1.4475093141444924E-03   13   2  11   2
   8.6308920082964961E-04   13   2  11   6
  -1.9596995574034785E-03   13   3  10   4
  -3.9336245815586288E-04   13   3  10   8
   2.7714336922565509E-03   13   3  11   5
   5.5629852325244039E-04   13   3  11   9
  -4.4639824996638454E-02   13   4   3   1
   8.9101551060051520E-03   13   4   3   2
   4.4108497363893303E-03   13   4   6   5
   8.9101551060051538E-03   13   4   7   1
  -1.3297590210755970E-02   13   4   7   2
   5.3042165554469346E-03   13   4   7   6
  -4.8116598404522343E-02   13   4  10   3
   9.9179308681200586E-03   13   4  10   7
  -3.6795006711724108E-02   13   4  11   4
   6.4567376489346358E-03   13   4  11   8
  -1.8043431053316971E-02   13   4  12   5
   4.3701574239983802E-03   13   4  12   9
   4.4639824996638454E-02   13   5   4   1
  -8.9101551060051520E-03   13   5   4   2
   4.4108497363893303E-03   13   5   6   4
  -8.9101551060051538E-03   13   5   8   1
   1.3297590210755970E-02   13   5   8   2
  -5.3042165554469346E-03   13   5   8   6
   3.5409289865595835E-02   13   5  11   3
  -6.7348869105608566E-03   13   5  11   7
   3.8486994089032216E-02   13   5  12   4
  -8.2585461947723773E-03   13   5  12   8
   3.5409289865595835E-02   13   5  13   5
  -6.7348869105608566E-03   13   5  13   9
   6.6854602022094146E-04   13   6   7   4
  -6.6854602022094146E-04   13   6   8   5
   7.0306546893407072E-04   13   6  11   1
   8.6308920082965080E-04   13   6  11   2
  -5.7272442204952417E-04   13   6  11   6
  -3.9336245815586174E-04   13   7  10   4
  -3.9736656045703497E-04   13   7  10   8
   5.5629852325243877E-04   13   7  11   5
   5.6196117903188722E-04   13   7  11   9
   8.9101551060051416E-03   13   8   3   1
  -4.2688752717391296E-03   13   8   3   2
  -2.4062237906585320E-03   13   8   6   5
  -4.2688752717391287E-03   13   8   7   1
  -1.0421504790285527E-03   13   8   7   2
  -3.9125215283117531E-04   13   8   7   6
   9.9179308681200500E-03   13   8  10   3
  -4.5173719388322212E-03   13   8  10   7
   6.4567376489346306E-03   13   8  11   4
  -3.7562255101219731E-03   13   8  11   8
   4.3701574239983741E-03   13   8  12   5
  -1.5197609334295017E-03   13   8  12   9
  -8.9101551060051416E-03   13   9   4   1
   4.2688752717391296E-03   13   9   4   2
  -2.4062237906585320E-03   13   9   6   4
   4.2688752717391287E-03   13   9   8   1
   1.0421504790285527E-03   13   9   8   2
   3.9125215283117531E-04   13   9   8   6
  -6.7348869105608496E-03   13   9  11   3
   3.4752449206060295E-03   13   9  11   7
  -8.2585461947723687E-03   13   9  12   4
   3.5261945238412727E-03   13   9  12   8
  -6.7348869105608496E-03   13   9  13   5
   3.4752449206060295E-03   13   9  13   9
   1.5563470520173635E-03   13  11   7   5
  -7.1211577432077396E-03   13  11  10   1
  -1.4207439794942931E-03   13  11  10   2
   5.5012116676877033E-04   13  11  10   6
  -4.4927869471735250E-04   13  12   7   4
   4.4927869471735250E-04   13  12   8   5
  -2.9072004747880600E-03   13  12  11   1
  -5.8001630081537070E-04   13  12  11   2
   2.2458602588133614E-04   13  12  11   6
   2.3386878761636938E+00   13  13   1   1
  -2.1242387412755370E-01   13  13   2   1
   4.9835950886502545E-01   13  13   2   2
   2.3373877365865257E+00   13  13   3   3
   2.3412881553180331E+00   13  13   4   4
   2.3373877365865257E+00   13  13   5   5
  -8.0213082040725248E-02   13  13   6   1
   9.8064151927560420E-02   13  13   6   2
   1.6519834678935974E-01   13  13   6   6
  -2.1268326530289003E-01   13  13   7   3
   4.9784401644878962E-01   13  13   7   7
  -2.1190509177688135E-01   13  13   8   4
   4.9939049369749783E-01   13  13   8   8
  -2.1268326530289003E-01   13  13   9   5
   4.9784401644878962E-01   13  13   9   9
   2.3367111850563420E+00   13  13  10  10
   2.3400939427072487E+00   13  13  11  11
   2.9072004747880600E-03   13  13  12   1
   5.8001630081537070E-04   13  13  12   2
  -2.2458602588133614E-04   13  13  12   6
   2.3398291252912822E+00   13  13  12  12
   2.3400939427072487E+00   13  13  13  13
  -1.9890415712920093E-03   14   1   7   5
   9.1009770401840676E-03   14   1  10   1
   1.8157382273535890E-03   14   1  10   2
  -7.0306546893407224E-04   14   1  10   6
  -1.5856670071115408E-03   14   2   7   5
   1.8157382273535875E-03   14   2  10   1
   1.4475093141444924E-03   14   2  10   2
  -8.6308920082964961E-04   14   2  10   6
  -4.1571505383848255E-03   14   3  10   5
  -8.3444778487866043E-04   14   3  10   9
   1.3857168461282755E-03   14   4  10   4
   2.7814926162622020E-04   14   4  10   8
  -1.9596995574034785E-03   14   4  11   5
  -3.9336245815586288E-04   14   4  11   9
  -6.3130245932207618E-02   14   5   3   1
   1.2600862193760368E-02   14   5   3   2
   6.2378835187915814E-03   14   5   6   5
   1.2600862193760371E-02   14   5   7   1
  -1.8805632422930797E-02   14   5   7   2
   7.5012949904769569E-03   14   5   7   6
  -6.9432862885063396E-02   14   5  10   3
   1.3747923082747930E-02   14   5  10   7
  -4.8116598404522343E-02   14   5  11   4
   9.9179308681200586E-03   14   5  11   8
  -2.8911564108337784E-02   14   5  12   5
   5.4990121354078353E-03   14   5  12   9
   9.4546684886701266E-04   14   6   7   5
  -7.0306546893407072E-04   14   6  10   1
  -8.6308920082965080E-04   14   6  10   2
   5.7272442204952417E-04   14   6  10   6
  -8.3444778487865804E-04   14   7  10   5
  -8.4294176854783067E-04   14   7  10   9
   2.7814926162621944E-04   14   8  10   4
   2.8098058951594367E-04   14   8  10   8
  -3.9336245815586174E-04   14   8  11   5
  -3.9736656045703497E-04   14   8  11   9
   1.2600862193760356E-02   14   9   3   1
  -6.0371013053726096E-03   14   9   3   2
  -3.4029143188540950E-03   14   9   6   5
  -6.0371013053726079E-03   14   9   7   1
  -1.4738233414757970E-03   14   9   7   2
  -5.5331410084151912E-04   14   9   7   6
   1.3747923082747918E-02   14   9  10   3
  -6.6695092516961142E-03   14   9  10   7
   9.9179308681200500E-03   14   9  11   4
  -4.5173719388322212E-03   14   9  11   8
   5.4990121354078310E-03   14   9  12   5
  -2.8375255955612700E-03   14   9  12   9
   1.2707520467091227E-03   14  12   7   5
  -5.8144009495761199E-03   14  12  10   1
  -1.1600326016307414E-03   14  12  10   2
   4.4917205176267229E-04   14  12  10   6
  -1.1005035543611701E-03   14  13   7   4
   1.1005035543611701E-03   14  13   8   5
  -7.1211577432077396E-03   14  13  11   1
  -1.4207439794942931E-03   14  13  11   2
   5.5012116676877033E-04   14  13  11   6
   2.3386878761636938E+00   14  14   1   1
  -2.1242387412755370E-01   14  14   2   1
   4.9835950886502545E-01   14  14   2   2
   2.3412881553180331E+00   14  14   3   3
   2.3334873178550182E+00   14  14   4   4
   2.3412881553180331E+00   14  14   5   5
  -8.0213082040725248E-02   14  14   6   1
   9.8064151927560420E-02   14  14   6   2
   1.6519834678935974E-01   14  14   6   6
  -2.1190509177688135E-01   14  14   7   3
   4.9939049369749783E-01   14  14   7   7
  -2.1346143882889873E-01   14  14   8   4
   4.9629753920008141E-01   14  14   8   8
  -2.1190509177688135E-01   14  14   9   5
   4.9939049369749783E-01   14  14   9   9
   2.3424323978834529E+00   14  14  10  10
   2.3367111850563420E+00   14  14  11  11
  -5.8144009495761199E-03   14  14  12   1
  -1.1600326016307414E-03   14  14  12   2
   4.4917205176267229E-04   14  14  12   6
   2.3351522149388733E+00   14  14  12  12
   2.3367111850563420E+00   14  14  13  13
   2.3424323978834529E+00   14  14  14  14
   4.6048218979610360E-02   15   1   1   1
  -6.7111383597929083E-03   15   1   2   1
   1.5128299221547875E-03   15   1   2   2
   4.6048218979610381E-02   15   1   3   3
   4.6048218979610381E-02   15   1   4   4
   4.6048218979610381E-02   15   1   5   5
  -2.5590735179447490E-03   15   1   6   1
   5.8212751362056491E-04   15   1   6   2
   2.2411976383636509E-04   15   1   6   6
  -6.7111383597929109E-03   15   1   7   3
   1.5128299221547881E-03   15   1   7   7
  -6.7111383597929109E-03   15   1   8   4
   1.5128299221547881E-03   15   1   8   8
  -6.7111383597929109E-03   15   1   9   5
   1.5128299221547881E-03   15   1   9   9
   4.6048218979610353E-02   15   1  10  10
   4.6048218979610353E-02   15   1  11  11
   4.6048218979610353E-02   15   1  12  12
   4.6048218979610353E-02   15   1  13  13
   4.6048218979610353E-02   15   1  14  14
   1.4723045545301972E-03   15   1  15   1
  -3.3557985811425068E-04   15   1  15   2
  -1.2921522037362214E-04   15   1  15   6
   7.4500686584147007E-05   15   1  15  15
  -5.2363519890375382E-02   15   2   1   1
   1.6013689294603660E-03   15   2   2   1
  -2.2838592790577553E-02   15   2   2   2
  -5.2363519890375403E-02   15   2   3   3
  -5.2363519890375403E-02   15   2   4   4
  -5.2363519890375403E-02   15   2   5   5
   5.8808804259152575E-04   15   2   6   1
  -6.2587566337839861E-03   15   2   6   2
  -2.4195946287635939E-03   15   2   6   6
   1.6013689294603667E-03   15   2   7   3
  -2.2838592790577563E-02   15   2   7   7
   1.6013689294603667E-03   15   2   8   4
  -2.2838592790577563E-02   15   2   8   8
   1.6013689294603667E-03   15   2   9   5
  -2.2838592790577563E-02   15   2   9   9
  -5.2363519890375368E-02   15   2  10  10
  -5.2363519890375368E-02   15   2  11  11
  -5.2363519890375375E-02   15   2  12  12
  -5.2363519890375368E-02   15   2  13  13
  -5.2363519890375368E-02   15   2  14  14
  -3.3557985811425166E-04   15   2  15   1
   3.3441029673241061E-03   15   2  15   2
   1.3804246535413212E-03   15   2  15   6
  -7.8658650093949847E-04   15   2  15  15
   3.6129467241963311E-03   15   3   3   1
  -2.0725141031369462E-03   15   3   3   2
  -1.2131952002584216E-03   15   3   6   5
  -2.0725141031369462E-03   15   3   7   1
  -4.9511295592856712E-04   15   3   7   2
  -7.3983367445949996E-05   15   3   7   6
   3.9577848398134538E-03   15   3  10   3
  -2.2703254500713878E-03   15   3  10   7
   2.7985764987094068E-03   15   3  11   4
  -1.6053625212458789E-03   15   3  11   8
   1.6157588948776367E-03   15   3  12   5
  -9.2685648378824470E-04   15   3  12   9
  -8.2150483542253641E-04   15   3  15   5
   1.0590953941265681E-04   15   3  15   9
   3.6129467241963311E-03   15   4   4   1
  -2.0725141031369462E-03   15   4   4   2