 &FCI NORB=   14,NELEC=  2,MS2=  0,
  ORBSYM=1,1,1,1,1,1,1,1,1,1,1,1,1,1,
  ISYM=1,
  &END
  1.2486922982654711     1    1    1    1
  0.3168365548744145     2    1    1    1
  0.2171175576461264     2    1    2    1
  1.0307560054234448     2    2    1    1
  0.2208719560109950     2    2    2    1
  0.9070566662943312     2    2    2    2
  0.1595142113904879     3    1    3    1
 -0.0637593329210766     3    2    3    1
  0.0755022150339124     3    2    3    2
  0.9314480966015062     3    3    1    1
  0.1050297725831035     3    3    2    1
  0.8129297370693355     3    3    2    2
  0.8954637682405275     3    3    3    3
  0.1595142113904880     4    1    4    1
 -0.0637593329210766     4    2    4    1
  0.0755022150339124     4    2    4    2
  0.0554813068692956     4    3    4    3
  0.9314480966015064     4    4    1    1
  0.1050297725831035     4    4    2    1
  0.8129297370693356     4    4    2    2
  0.7845011545019367     4    4    3    3
  0.8954637682405280     4    4    4    4
  0.1595142113904879     5    1    5    1
 -0.0637593329210766     5    2    5    1
  0.0755022150339124     5    2    5    2
  0.0554813068692956     5    3    5    3
  0.0554813068692956     5    4    5    4
  0.9314480966015062     5    5    1    1
  0.1050297725831035     5    5    2    1
  0.8129297370693355     5    5    2    2
  0.7845011545019365     5    5    3    3
  0.7845011545019367     5    5    4    4
  0.8954637682405275     5    5    5    5
 -0.1020886170401262     6    1    1    1
 -0.1199703000804052     6    1    2    1
 -0.0986108601969558     6    1    2    2
  0.0093783265497702     6    1    3    3
  0.0093783265497702     6    1    4    4
  0.0093783265497702     6    1    5    5
  0.1137203123745275     6    1    6    1
 -0.2985137957214385     6    2    1    1
 -0.1817161273182759     6    2    2    1
 -0.2170574265672057     6    2    2    2
 -0.1215497957063956     6    2    3    3
 -0.1215497957063957     6    2    4    4
 -0.1215497957063956     6    2    5    5
  0.1003828402408034     6    2    6    1
  0.1730938625484030     6    2    6    2
  0.0441346059034011     6    3    3    1
 -0.0111072199838420     6    3    3    2
  0.0331169438197303     6    3    6    3
  0.0441346059034011     6    4    4    1
 -0.0111072199838420     6    4    4    2
  0.0331169438197303     6    4    6    4
  0.0441346059034011     6    5    5    1
 -0.0111072199838420     6    5    5    2
  0.0331169438197303     6    5    6    5
  1.0508143132902441     6    6    1    1
  0.2315996775807274     6    6    2    1
  0.9134362151955583     6    6    2    2
  0.8217153074091735     6    6    3    3
  0.8217153074091736     6    6    4    4
  0.8217153074091735     6    6    5    5
 -0.0963577219059551     6    6    6    1
 -0.2318736374845259     6    6    6    2
  0.9348560603750640     6    6    6    6
 -0.0988208915155912     7    1    3    1
 -0.0105286633472624     7    1    3    2
 -0.0325455318055435     7    1    6    3
  0.1113504194573876     7    1    7    1
 -0.1104256868579614     7    2    3    1
  0.0477543870972229     7    2    3    2
 -0.0089469906521594     7    2    6    3
  0.0661984954594988     7    2    7    1
  0.0989803475885750     7    2    7    2
 -0.2368445934052057     7    3    1    1
 -0.1151555342068554     7    3    2    1
 -0.1417171918296584     7    3    2    2
 -0.1249657806651440     7    3    3    3
 -0.1169060755605069     7    3    4    4
 -0.1169060755605069     7    3    5    5
  0.0214303084268478     7    3    6    1
  0.0990847756729158     7    3    6    2
 -0.1557398589868682     7    3    6    6
  0.1248424569893175     7    3    7    3
 -0.0040298525523185     7    4    4    3
  0.0194005270483541     7    4    7    4
 -0.0040298525523185     7    5    5    3
  0.0194005270483540     7    5    7    5
 -0.0728355158745717     7    6    3    1
  0.0617474659514505     7    6    3    2
 -0.0192085861851002     7    6    6    3
  0.0121224025393769     7    6    7    1
  0.0491135601572200     7    6    7    2
  0.0669288181839742     7    6    7    6
  1.0050270808908821     7    7    1    1
  0.1820096890096428     7    7    2    1
  0.8595399059988001     7    7    2    2
  0.8807993743269480     7    7    3    3
  0.7901988045379262     7    7    4    4
  0.7901988045379260     7    7    5    5
 -0.0390096336047128     7    7    6    1
 -0.1680260999676957     7    7    6    2
  0.8671319291638880     7    7    6    6
 -0.1642748633767260     7    7    7    3
  0.9269713144850861     7    7    7    7
 -0.0988208915155912     8    1    4    1
 -0.0105286633472624     8    1    4    2
 -0.0325455318055435     8    1    6    4
  0.1113504194573876     8    1    8    1
 -0.1104256868579614     8    2    4    1
  0.0477543870972229     8    2    4    2
 -0.0089469906521594     8    2    6    4
  0.0661984954594988     8    2    8    1
  0.0989803475885750     8    2    8    2
 -0.0040298525523185     8    3    4    3
  0.0194005270483541     8    3    7    4
  0.0194005270483541     8    3    8    3
 -0.2368445934052058     8    4    1    1
 -0.1151555342068554     8    4    2    1
 -0.1417171918296584     8    4    2    2
 -0.1169060755605069     8    4    3    3
 -0.1249657806651440     8    4    4    4
 -0.1169060755605069     8    4    5    5
  0.0214303084268478     8    4    6    1
  0.0990847756729158     8    4    6    2
 -0.1557398589868683     8    4    6    6
  0.0860414028926094     8    4    7    3
 -0.1472900686322079     8    4    7    7
  0.1248424569893175     8    4    8    4
 -0.0040298525523185     8    5    5    4
  0.0194005270483541     8    5    8    5
 -0.0728355158745718     8    6    4    1
  0.0617474659514505     8    6    4    2
 -0.0192085861851002     8    6    6    4
  0.0121224025393769     8    6    8    1
  0.0491135601572200     8    6    8    2
  0.0669288181839742     8    6    8    6
  0.0453002848945110     8    7    4    3
 -0.0084923973722591     8    7    7    4
 -0.0084923973722591     8    7    8    3
  0.0481645951269517     8    7    8    7
  1.0050270808908823     8    8    1    1
  0.1820096890096429     8    8    2    1
  0.8595399059988003     8    8    2    2
  0.7901988045379261     8    8    3    3
  0.8807993743269483     8    8    4    4
  0.7901988045379262     8    8    5    5
 -0.0390096336047128     8    8    6    1
 -0.1680260999676958     8    8    6    2
  0.8671319291638881     8    8    6    6
 -0.1472900686322078     8    8    7    3
  0.8306421242311830     8    8    7    7
 -0.1642748633767261     8    8    8    4
  0.9269713144850866     8    8    8    8
 -0.0988208915155912     9    1    5    1
 -0.0105286633472624     9    1    5    2
 -0.0325455318055435     9    1    6    5
  0.1113504194573876     9    1    9    1
 -0.1104256868579614     9    2    5    1
  0.0477543870972229     9    2    5    2
 -0.0089469906521594     9    2    6    5
  0.0661984954594988     9    2    9    1
  0.0989803475885750     9    2    9    2
 -0.0040298525523185     9    3    5    3
  0.0194005270483540     9    3    7    5
  0.0194005270483540     9    3    9    3
 -0.0040298525523185     9    4    5    4
  0.0194005270483541     9    4    8    5
  0.0194005270483541     9    4    9    4
 -0.2368445934052057     9    5    1    1
 -0.1151555342068554     9    5    2    1
 -0.1417171918296584     9    5    2    2
 -0.1169060755605069     9    5    3    3
 -0.1169060755605069     9    5    4    4
 -0.1249657806651440     9    5    5    5
  0.0214303084268478     9    5    6    1
  0.0990847756729158     9    5    6    2
 -0.1557398589868682     9    5    6    6
  0.0860414028926094     9    5    7    3
 -0.1472900686322079     9    5    7    7
  0.0860414028926094     9    5    8    4
 -0.1472900686322079     9    5    8    8
  0.1248424569893175     9    5    9    5
 -0.0728355158745717     9    6    5    1
  0.0617474659514505     9    6    5    2
 -0.0192085861851002     9    6    6    5
  0.0121224025393769     9    6    9    1
  0.0491135601572200     9    6    9    2
  0.0669288181839742     9    6    9    6
  0.0453002848945110     9    7    5    3
 -0.0084923973722591     9    7    7    5
 -0.0084923973722591     9    7    9    3
  0.0481645951269516     9    7    9    7
  0.0453002848945110     9    8    5    4
 -0.0084923973722591     9    8    8    5
 -0.0084923973722591     9    8    9    4
  0.0481645951269517     9    8    9    8
  1.0050270808908821     9    9    1    1
  0.1820096890096428     9    9    2    1
  0.8595399059988001     9    9    2    2
  0.7901988045379259     9    9    3    3
  0.7901988045379261     9    9    4    4
  0.8807993743269480     9    9    5    5
 -0.0390096336047128     9    9    6    1
 -0.1680260999676957     9    9    6    2
  0.8671319291638880     9    9    6    6
 -0.1472900686322078     9    9    7    3
  0.8306421242311828     9    9    7    7
 -0.1472900686322078     9    9    8    4
  0.8306421242311830     9    9    8    8
 -0.1642748633767260     9    9    9    5
  0.9269713144850861     9    9    9    9
  0.0488164381199857    10    1   10    1
 -0.0414496272069888    10    2   10    1
  0.0542675790597374    10    2   10    2
  0.1430387212020041    10    3   10    3
  0.0216807902895114    10    4   10    4
  0.1430387212020041    10    5   10    5
  0.0107832743436485    10    6   10    1
  0.0040314238443400    10    6   10    2
  0.0196579264192845    10    6   10    6
  0.0294688870627806    10    7   10    3
  0.0379091519499755    10    7   10    7
  0.0053075373040658    10    8   10    4
  0.0083619558176808    10    8   10    8
  0.0294688870627806    10    9   10    5
  0.0379091519499755    10    9   10    9
  0.8203549088139146    10   10    1    1
  0.0519687345905983    10   10    2    1
  0.7465243193894527    10   10    2    2
  0.7899036218523618    10   10    3    3
  0.7137213908763236    10   10    4    4
  0.7899036218523618    10   10    5    5
  0.0184566563631295    10   10    6    1
 -0.0754489275305178    10   10    6    2
  0.7486048967016750    10   10    6    6
 -0.0707897166800739    10   10    7    3
  0.7682032912064493    10   10    7    7
 -0.0780878083198163    10   10    8    4
  0.7091779961202034    10   10    8    8
 -0.0707897166800739    10   10    9    5
  0.7682032912064493    10   10    9    9
  0.7939272602884019    10   10   10   10
  0.0488164381199857    11    1   11    1
 -0.0414496272069888    11    2   11    1
  0.0542675790597374    11    2   11    2
  0.1430387212020041    11    3   11    3
  0.0996771406229814    11    4   10    5
  0.0188538124546490    11    4   10    9
  0.1430387212020041    11    4   11    4
  0.0216807902895114    11    5   10    4
  0.0053075373040658    11    5   10    8
  0.0216807902895113    11    5   11    5
  0.0107832743436485    11    6   11    1
  0.0040314238443400    11    6   11    2
  0.0196579264192845    11    6   11    6
  0.0294688870627806    11    7   11    3
  0.0379091519499755    11    7   11    7
  0.0188538124546490    11    8   10    5
  0.0211852403146140    11    8   10    9
  0.0294688870627806    11    8   11    4
  0.0379091519499755    11    8   11    8
  0.0053075373040658    11    9   10    4
  0.0083619558176808    11    9   10    8
  0.0053075373040658    11    9   11    5
  0.0083619558176808    11    9   11    9
  0.0380911154880192    11   10    5    4
  0.0036490458198712    11   10    8    5
  0.0036490458198712    11   10    9    4
  0.0295126475431230    11   10    9    8
  0.0432588739491651    11   10   11   10
  0.8203549088139146    11   11    1    1
  0.0519687345905983    11   11    2    1
  0.7465243193894527    11   11    2    2
  0.7899036218523618    11   11    3    3
  0.7899036218523620    11   11    4    4
  0.7137213908763235    11   11    5    5
  0.0184566563631295    11   11    6    1
 -0.0754489275305178    11   11    6    2
  0.7486048967016750    11   11    6    6
 -0.0707897166800739    11   11    7    3
  0.7682032912064493    11   11    7    7
 -0.0707897166800739    11   11    8    4
  0.7682032912064494    11   11    8    8
 -0.0780878083198163    11   11    9    5
  0.7091779961202033    11   11    9    9
  0.7074095123900717    11   11   10   10
  0.7939272602884019    11   11   11   11
  0.0488164381199857    12    1   12    1
 -0.0414496272069889    12    2   12    1
  0.0542675790597374    12    2   12    2
 -0.0700660340806237    12    3   10    5
 -0.0139495617871787    12    3   10    9
 -0.0325138037509441    12    3   11    4
 -0.0047566375134696    12    3   11    8
  0.0621334339270089    12    3   12    3
  0.1025798378315678    12    4   11    3
  0.0187061993006482    12    4   11    7
  0.1834913648395018    12    4   12    4
 -0.0700660340806237    12    5   10    3
 -0.0139495617871787    12    5   10    7
  0.0621334339270089    12    5   12    5
  0.0107832743436485    12    6   12    1
  0.0040314238443400    12    6   12    2
  0.0196579264192845    12    6   12    6
 -0.0139495617871787    12    7   10    5
 -0.0170590816407790    12    7   10    9
 -0.0047566375134696    12    7   11    4
 -0.0025757493139098    12    7   11    8
  0.0133613205569707    12    7   12    3
  0.0182110211951124    12    7   12    7
  0.0187061993006482    12    8   11    3
  0.0196348309546888    12    8   11    7
  0.0375226703156856    12    8   12    4
  0.0477582173274071    12    8   12    8
 -0.0139495617871787    12    9   10    3
 -0.0170590816407790    12    9   10    7
  0.0133613205569707    12    9   12    5
  0.0182110211951124    12    9   12    9
 -0.0439838315614820    12   10    5    3
 -0.0042135551727758    12   10    7    5
 -0.0042135551727758    12   10    9    3
 -0.0340782700070412    12   10    9    7
  0.0489574535627286    12   10   12   10
  0.0219919157807410    12   11    4    3
  0.0021067775863879    12   11    7    4
  0.0021067775863879    12   11    8    3
  0.0170391350035206    12   11    8    7
  0.0318617147220381    12   11   12   11
  0.8203549088139148    12   12    1    1
  0.0519687345905983    12   12    2    1
  0.7465243193894530    12   12    2    2
  0.7391154678683364    12   12    3    3
  0.8152976988443750    12   12    4    4
  0.7391154678683364    12   12    5    5
  0.0184566563631295    12   12    6    1
 -0.0754489275305178    12   12    6    2
  0.7486048967016752    12   12    6    6
 -0.0756551111065688    12   12    7    3
  0.7288530944822853    12   12    7    7
 -0.0683570194668265    12   12    8    4
  0.7878783895685314    12   12    8    8
 -0.0756551111065688    12   12    9    5
  0.7288530944822853    12   12    9    9
  0.6960123531629451    12   12   10   10
  0.7302038308443259    12   12   11   11
  0.7939272602884024    12   12   12   12
  0.0488164381199857    13    1   13    1
 -0.0414496272069888    13    2   13    1
  0.0542675790597374    13    2   13    2
  0.0216807902895114    13    3   10    4
  0.0053075373040658    13    3   10    8
  0.0216807902895114    13    3   11    5
  0.0053075373040658    13    3   11    9
  0.0216807902895113    13    3   13    3
  0.0996771406229814    13    4   10    3
  0.0188538124546490    13    4   10    7
 -0.0325138037509441    13    4   12    5
 -0.0047566375134696    13    4   12    9
  0.1430387212020041    13    4   13    4
  0.0996771406229814    13    5   11    3
  0.0188538124546490    13    5   11    7
  0.1025798378315677    13    5   12    4
  0.0187061993006482    13    5   12    8
  0.1430387212020041    13    5   13    5
  0.0107832743436485    13    6   13    1
  0.0040314238443400    13    6   13    2
  0.0196579264192845    13    6   13    6
  0.0053075373040658    13    7   10    4
  0.0083619558176808    13    7   10    8
  0.0053075373040658    13    7   11    5
  0.0083619558176808    13    7   11    9
  0.0053075373040658    13    7   13    3
  0.0083619558176808    13    7   13    7
  0.0188538124546490    13    8   10    3
  0.0211852403146140    13    8   10    7
 -0.0047566375134696    13    8   12    5
 -0.0025757493139098    13    8   12    9
  0.0294688870627806    13    8   13    4
  0.0379091519499755    13    8   13    8
  0.0188538124546490    13    9   11    3
  0.0211852403146140    13    9   11    7
  0.0187061993006482    13    9   12    4
  0.0196348309546888    13    9   12    8
  0.0294688870627806    13    9   13    5
  0.0379091519499755    13    9   13    9
  0.0380911154880192    13   10    4    3
  0.0036490458198712    13   10    7    4
  0.0036490458198712    13   10    8    3
  0.0295126475431230    13   10    8    7
  0.0098702294216682    13   10   12   11
  0.0432588739491651    13   10   13   10
  0.0380911154880192    13   11    5    3
  0.0036490458198712    13   11    7    5
  0.0036490458198712    13   11    9    3
  0.0295126475431230    13   11    9    7
 -0.0197404588433364    13   11   12   10
  0.0432588739491651    13   11   13   11
  0.0219919157807410    13   12    5    4
  0.0021067775863879    13   12    8    5
  0.0021067775863879    13   12    9    4
  0.0170391350035206    13   12    9    8
  0.0098702294216682    13   12   11   10
  0.0318617147220381    13   12   13   12
  0.8203549088139146    13   13    1    1
  0.0519687345905983    13   13    2    1
  0.7465243193894527    13   13    2    2
  0.7137213908763235    13   13    3    3
  0.7899036218523620    13   13    4    4
  0.7899036218523618    13   13    5    5
  0.0184566563631295    13   13    6    1
 -0.0754489275305178    13   13    6    2
  0.7486048967016750    13   13    6    6
 -0.0780878083198163    13   13    7    3
  0.7091779961202033    13   13    7    7
 -0.0707897166800739    13   13    8    4
  0.7682032912064494    13   13    8    8
 -0.0707897166800739    13   13    9    5
  0.7682032912064493    13   13    9    9
  0.7074095123900717    13   13   10   10
  0.7074095123900717    13   13   11   11
  0.7302038308443259    13   13   12   12
  0.7939272602884019    13   13   13   13
  0.0488164381199857    14    1   14    1
 -0.0414496272069888    14    2   14    1
  0.0542675790597374    14    2   14    2
 -0.0779963503334700    14    3   10    5
 -0.0135462751505832    14    3   10    9
 -0.0996771406229814    14    3   11    4
 -0.0188538124546490    14    3   11    8
  0.0700660340806237    14    3   12    3
  0.0139495617871787    14    3   12    7
  0.1430387212020041    14    3   14    3
 -0.0216807902895114    14    4   11    3
 -0.0053075373040658    14    4   11    7
  0.0216807902895114    14    4   13    5
  0.0053075373040658    14    4   13    9
  0.0216807902895114    14    4   14    4
  0.0779963503334700    14    5   10    3
  0.0135462751505832    14    5   10    7
 -0.0700660340806237    14    5   12    5
 -0.0139495617871787    14    5   12    9
  0.0996771406229814    14    5   13    4
  0.0188538124546490    14    5   13    8
  0.1430387212020041    14    5   14    5
  0.0107832743436485    14    6   14    1
  0.0040314238443400    14    6   14    2
  0.0196579264192845    14    6   14    6
 -0.0135462751505832    14    7   10    5
 -0.0128232844969332    14    7   10    9
 -0.0188538124546490    14    7   11    4
 -0.0211852403146140    14    7   11    8
  0.0139495617871787    14    7   12    3
  0.0170590816407790    14    7   12    7
  0.0294688870627806    14    7   14    3
  0.0379091519499755    14    7   14    7
 -0.0053075373040658    14    8   11    3
 -0.0083619558176808    14    8   11    7
  0.0053075373040658    14    8   13    5
  0.0083619558176808    14    8   13    9
  0.0053075373040658    14    8   14    4
  0.0083619558176808    14    8   14    8
  0.0135462751505832    14    9   10    3
  0.0128232844969332    14    9   10    7
 -0.0139495617871787    14    9   12    5
 -0.0170590816407790    14    9   12    9
  0.0188538124546490    14    9   13    4
  0.0211852403146140    14    9   13    8
  0.0294688870627806    14    9   14    5
  0.0379091519499755    14    9   14    9
  0.0261631351084746    14   10   14   10
 -0.0380911154880192    14   11    4    3
 -0.0036490458198712    14   11    7    4
 -0.0036490458198712    14   11    8    3
 -0.0295126475431230    14   11    8    7
 -0.0098702294216682    14   11   12   11
 -0.0170957388406905    14   11   13   10
  0.0432588739491651    14   11   14   11
  0.0439838315614820    14   12    3    3
 -0.0439838315614820    14   12    5    5
  0.0042135551727758    14   12    7    3
  0.0340782700070412    14   12    7    7
 -0.0042135551727758    14   12    9    5
 -0.0340782700070412    14   12    9    9
  0.0197404588433364    14   12   11   11
 -0.0197404588433364    14   12   13   13
  0.0489574535627286    14   12   14   12
  0.0380911154880192    14   13    5    4
  0.0036490458198712    14   13    8    5
  0.0036490458198712    14   13    9    4
  0.0295126475431230    14   13    9    8
  0.0170957388406905    14   13   11   10
  0.0098702294216682    14   13   13   12
  0.0432588739491651    14   13   14   13
  0.8203549088139146    14   14    1    1
  0.0519687345905983    14   14    2    1
  0.7465243193894527    14   14    2    2
  0.7899036218523618    14   14    3    3
  0.7137213908763236    14   14    4    4
  0.7899036218523618    14   14    5    5
  0.0184566563631295    14   14    6    1
 -0.0754489275305178    14   14    6    2
  0.7486048967016750    14   14    6    6
 -0.0707897166800739    14   14    7    3
  0.7682032912064493    14   14    7    7
 -0.0780878083198163    14   14    8    4
  0.7091779961202034    14   14    8    8
 -0.0707897166800739    14   14    9    5
  0.7682032912064493    14   14    9    9
  0.7416009900714525    14   14   10   10
  0.7074095123900717    14   14   11   11
  0.6960123531629451    14   14   12   12
  0.7074095123900717    14   14   13   13
  0.7939272602884019    14   14   14   14
 -1.9007199424287189     1    1    0    0
 -0.3168355016729421     2    1    0    0
  1.7145030432400266     2    2    0    0
  0.5977152661162566     3    3    0    0
  0.5977152661162566     4    4    0    0
  0.5977152661162566     5    5    0    0
  0.1020879782283319     6    1    0    0
  0.2985129072997617     6    2    0    0
  7.6166384176429629     6    6    0    0
  0.0674387771982704     7    3    0    0
  5.1339379979307385     7    7    0    0
  0.0674387771982704     8    4    0    0
  5.1339379979307385     8    8    0    0
  0.0674387771982704     9    5    0    0
  5.1339379979307385     9    9    0    0
  2.5323888317704148    10   10    0    0
  2.5323888317704148    11   11    0    0
  2.5323888317704148    12   12    0    0
  2.5323888317704148    13   13    0    0
  2.5323888317704148    14   14    0    0
  0.0000000000000000     0    0    0    0
