 &FCI NORB=   14,NELEC=  2,MS2=  0,
  ORBSYM=1,1,1,1,1,1,1,1,1,1,1,1,1,1,
  ISYM=1,
  &END
  1.0258171411126953     1    1    1    1
 -0.1208267241108792     2    1    1    1
  0.0226071895576863     2    1    2    1
  0.2662482011085812     2    2    1    1
 -0.0067796750923671     2    2    2    1
  0.1894409714398320     2    2    2    2
  0.0362143140959122     3    1    3    1
  0.0175729843831061     3    2    3    1
  0.0306031335958921     3    2    3    2
  0.4309103790863272     3    3    1    1
 -0.0167830646108724     3    3    2    1
  0.2281631326201861     3    3    2    2
  0.3510351059463881     3    3    3    3
  0.0362143140959123     4    1    4    1
  0.0175729843831061     4    2    4    1
  0.0306031335958921     4    2    4    2
  0.0189382210867551     4    3    4    3
  0.4309103790863273     4    4    1    1
 -0.0167830646108724     4    4    2    1
  0.2281631326201861     4    4    2    2
  0.3131586637728780     4    4    3    3
  0.3510351059463883     4    4    4    4
  0.0362143140959122     5    1    5    1
  0.0175729843831061     5    2    5    1
  0.0306031335958921     5    2    5    2
  0.0189382210867551     5    3    5    3
  0.0189382210867551     5    4    5    4
  0.4309103790863272     5    5    1    1
 -0.0167830646108724     5    5    2    1
  0.2281631326201861     5    5    2    2
  0.3131586637728780     5    5    3    3
  0.3131586637728780     5    5    4    4
  0.3510351059463881     5    5    5    5
  0.0645421022682980     6    1    1    1
 -0.0123494054746932     6    1    2    1
  0.0034043606108602     6    1    2    2
  0.0080874726488696     6    1    3    3
  0.0080874726488696     6    1    4    4
  0.0080874726488696     6    1    5    5
  0.0067594110494751     6    1    6    1
 -0.0678706868693612     6    2    1    1
  0.0037779096705620     6    2    2    1
 -0.0289570832944058     6    2    2    2
 -0.0469084405823476     6    2    3    3
 -0.0469084405823476     6    2    4    4
 -0.0469084405823476     6    2    5    5
 -0.0019115505174864     6    2    6    1
  0.0103799097089123     6    2    6    2
 -0.0084733015099259     6    3    3    1
 -0.0126963601193596     6    3    3    2
  0.0057047651485843     6    3    6    3
 -0.0084733015099259     6    4    4    1
 -0.0126963601193596     6    4    4    2
  0.0057047651485843     6    4    6    4
 -0.0084733015099259     6    5    5    1
 -0.0126963601193596     6    5    5    2
  0.0057047651485843     6    5    6    5
  0.1287151050800520     6    6    1    1
 -0.0021164617974856     6    6    2    1
  0.1074273666515984     6    6    2    2
  0.1170403574972364     6    6    3    3
  0.1170403574972364     6    6    4    4
  0.1170403574972364     6    6    5    5
  0.0010745674850692     6    6    6    1
 -0.0065747099209748     6    6    6    2
  0.0855089543878990     6    6    6    6
 -0.0184629000774605     7    1    3    1
 -0.0068608696203761     7    1    3    2
  0.0034369562659542     7    1    6    3
  0.0096278484367134     7    1    7    1
  0.0033556976045122     7    2    3    1
  0.0125610021883274     7    2    3    2
 -0.0031327789405504     7    2    6    3
 -0.0009968144594655     7    2    7    1
  0.0151897954357475     7    2    7    2
 -0.1035185539216393     7    3    1    1
  0.0086126048748942     7    3    2    1
 -0.0195902604813081     7    3    2    2
 -0.0576027405954802     7    3    3    3
 -0.0497808641052530     7    3    4    4
 -0.0497808641052530     7    3    5    5
 -0.0042791534777262     7    3    6    1
  0.0094863614506717     7    3    6    2
 -0.0050443874785197     7    3    6    6
  0.0222431199547660     7    3    7    3
 -0.0039109382451136     7    4    4    3
  0.0025917460540907     7    4    7    4
 -0.0039109382451136     7    5    5    3
  0.0025917460540907     7    5    7    5
  0.0029756737124474     7    6    3    1
  0.0065497541565138     7    6    3    2
 -0.0017439885160247     7    6    6    3
 -0.0011116896037628     7    6    7    1
  0.0077450752122159     7    6    7    2
  0.0075490246264627     7    6    7    6
  0.2010478522986628     7    7    1    1
 -0.0046849723946876     7    7    2    1
  0.1513356730551721     7    7    2    2
  0.1813055955146652     7    7    3    3
  0.1695275287300412     7    7    4    4
  0.1695275287300411     7    7    5    5
  0.0023298959722542     7    7    6    1
 -0.0154056041659478     7    7    6    2
  0.0994145539810189     7    7    6    6
 -0.0103362221586518     7    7    7    3
  0.1437821248377193     7    7    7    7
 -0.0184629000774605     8    1    4    1
 -0.0068608696203761     8    1    4    2
  0.0034369562659542     8    1    6    4
  0.0096278484367134     8    1    8    1
  0.0033556976045122     8    2    4    1
  0.0125610021883274     8    2    4    2
 -0.0031327789405504     8    2    6    4
 -0.0009968144594655     8    2    8    1
  0.0151897954357475     8    2    8    2
 -0.0039109382451136     8    3    4    3
  0.0025917460540907     8    3    7    4
  0.0025917460540907     8    3    8    3
 -0.1035185539216393     8    4    1    1
  0.0086126048748942     8    4    2    1
 -0.0195902604813081     8    4    2    2
 -0.0497808641052530     8    4    3    3
 -0.0576027405954802     8    4    4    4
 -0.0497808641052530     8    4    5    5
 -0.0042791534777262     8    4    6    1
  0.0094863614506717     8    4    6    2
 -0.0050443874785197     8    4    6    6
  0.0170596278465847     8    4    7    3
 -0.0121430252370403     8    4    7    7
  0.0222431199547660     8    4    8    4
 -0.0039109382451136     8    5    5    4
  0.0025917460540907     8    5    8    5
  0.0029756737124474     8    6    4    1
  0.0065497541565138     8    6    4    2
 -0.0017439885160247     8    6    6    4
 -0.0011116896037628     8    6    8    1
  0.0077450752122159     8    6    8    2
  0.0075490246264627     8    6    8    6
  0.0058890333923120     8    7    4    3
  0.0009034015391942     8    7    7    4
  0.0009034015391942     8    7    8    3
  0.0079597250221265     8    7    8    7
  0.2010478522986629     8    8    1    1
 -0.0046849723946876     8    8    2    1
  0.1513356730551721     8    8    2    2
  0.1695275287300412     8    8    3    3
  0.1813055955146652     8    8    4    4
  0.1695275287300412     8    8    5    5
  0.0023298959722542     8    8    6    1
 -0.0154056041659478     8    8    6    2
  0.0994145539810189     8    8    6    6
 -0.0121430252370403     8    8    7    3
  0.1278626747934664     8    8    7    7
 -0.0103362221586518     8    8    8    4
  0.1437821248377194     8    8    8    8
 -0.0184629000774605     9    1    5    1
 -0.0068608696203761     9    1    5    2
  0.0034369562659542     9    1    6    5
  0.0096278484367134     9    1    9    1
  0.0033556976045122     9    2    5    1
  0.0125610021883274     9    2    5    2
 -0.0031327789405504     9    2    6    5
 -0.0009968144594655     9    2    9    1
  0.0151897954357475     9    2    9    2
 -0.0039109382451136     9    3    5    3
  0.0025917460540907     9    3    7    5
  0.0025917460540907     9    3    9    3
 -0.0039109382451136     9    4    5    4
  0.0025917460540907     9    4    8    5
  0.0025917460540907     9    4    9    4
 -0.1035185539216393     9    5    1    1
  0.0086126048748942     9    5    2    1
 -0.0195902604813081     9    5    2    2
 -0.0497808641052530     9    5    3    3
 -0.0497808641052530     9    5    4    4
 -0.0576027405954802     9    5    5    5
 -0.0042791534777262     9    5    6    1
  0.0094863614506717     9    5    6    2
 -0.0050443874785197     9    5    6    6
  0.0170596278465847     9    5    7    3
 -0.0121430252370403     9    5    7    7
  0.0170596278465847     9    5    8    4
 -0.0121430252370403     9    5    8    8
  0.0222431199547660     9    5    9    5
  0.0029756737124474     9    6    5    1
  0.0065497541565138     9    6    5    2
 -0.0017439885160247     9    6    6    5
 -0.0011116896037628     9    6    9    1
  0.0077450752122159     9    6    9    2
  0.0075490246264627     9    6    9    6
  0.0058890333923120     9    7    5    3
  0.0009034015391942     9    7    7    5
  0.0009034015391942     9    7    9    3
  0.0079597250221265     9    7    9    7
  0.0058890333923120     9    8    5    4
  0.0009034015391942     9    8    8    5
  0.0009034015391942     9    8    9    4
  0.0079597250221265     9    8    9    8
  0.2010478522986628     9    9    1    1
 -0.0046849723946876     9    9    2    1
  0.1513356730551721     9    9    2    2
  0.1695275287300411     9    9    3    3
  0.1695275287300412     9    9    4    4
  0.1813055955146652     9    9    5    5
  0.0023298959722542     9    9    6    1
 -0.0154056041659478     9    9    6    2
  0.0994145539810189     9    9    6    6
 -0.0121430252370403     9    9    7    3
  0.1278626747934663     9    9    7    7
 -0.0121430252370403     9    9    8    4
  0.1278626747934664     9    9    8    8
 -0.0103362221586518     9    9    9    5
  0.1437821248377193     9    9    9    9
  0.0010394126264965    10    1   10    1
  0.0023813730643726    10    2   10    1
  0.0179173583814584    10    2   10    2
  0.0212887448808627    10    3   10    3
  0.0029626205943047    10    4   10    4
  0.0212887448808627    10    5   10    5
 -0.0008210301690948    10    6   10    1
 -0.0020983510457373    10    6   10    2
  0.0024782249209596    10    6   10    6
  0.0099265985284723    10    7   10    3
  0.0153206010172193    10    7   10    7
  0.0012054327377199    10    8   10    4
  0.0025111591352577    10    8   10    8
  0.0099265985284723    10    9   10    5
  0.0153206010172193    10    9   10    9
  0.2166636663626906    10   10    1    1
 -0.0013356168202635    10   10    2    1
  0.1773295204117190    10   10    2    2
  0.2098847079898072    10   10    3    3
  0.1965890182152527    10   10    4    4
  0.2098847079898072    10   10    5    5
  0.0005090726028779    10   10    6    1
 -0.0238221259633411    10   10    6    2
  0.1046308521348700    10   10    6    6
 -0.0127776206107983    10   10    7    3
  0.1491398412587890    10   10    7    7
 -0.0145952142622418    10   10    8    4
  0.1378418243680477    10   10    8    8
 -0.0127776206107983    10   10    9    5
  0.1491398412587890    10   10    9    9
  0.1805687851093657    10   10   10   10
  0.0010394126264965    11    1   11    1
  0.0023813730643726    11    2   11    1
  0.0179173583814584    11    2   11    2
  0.0212887448808627    11    3   11    3
  0.0153635036922532    11    4   10    5
  0.0075157330530326    11    4   10    9
  0.0212887448808627    11    4   11    4
  0.0029626205943047    11    5   10    4
  0.0012054327377199    11    5   10    8
  0.0029626205943047    11    5   11    5
 -0.0008210301690948    11    6   11    1
 -0.0020983510457373    11    6   11    2
  0.0024782249209596    11    6   11    6
  0.0099265985284723    11    7   11    3
  0.0153206010172193    11    7   11    7
  0.0075157330530326    11    8   10    5
  0.0102982827467040    11    8   10    9
  0.0099265985284723    11    8   11    4
  0.0153206010172193    11    8   11    8
  0.0012054327377199    11    9   10    4
  0.0025111591352577    11    9   10    8
  0.0012054327377199    11    9   11    5
  0.0025111591352577    11    9   11    9
  0.0066478448872773    11   10    5    4
  0.0009087968257217    11   10    8    5
  0.0009087968257217    11   10    9    4
  0.0056490084453706    11   10    9    8
  0.0081111453417638    11   10   11   10
  0.2166636663626906    11   11    1    1
 -0.0013356168202635    11   11    2    1
  0.1773295204117190    11   11    2    2
  0.2098847079898072    11   11    3    3
  0.2098847079898073    11   11    4    4
  0.1965890182152527    11   11    5    5
  0.0005090726028779    11   11    6    1
 -0.0238221259633411    11   11    6    2
  0.1046308521348700    11   11    6    6
 -0.0127776206107983    11   11    7    3
  0.1491398412587890    11   11    7    7
 -0.0127776206107983    11   11    8    4
  0.1491398412587890    11   11    8    8
 -0.0145952142622418    11   11    9    5
  0.1378418243680477    11   11    9    9
  0.1643464944258383    11   11   10   10
  0.1805687851093658    11   11   11   11
  0.0010394126264965    12    1   12    1
  0.0023813730643726    12    2   12    1
  0.0179173583814584    12    2   12    2
 -0.0105805927900468    12    3   10    5
 -0.0050351674169383    12    3   10    9
 -0.0054491833971611    12    3   11    4
 -0.0029472966701007    12    3   11    8
  0.0090713286898241    12    3   12    3
  0.0160297761872078    12    4   11    3
  0.0079824640870390    12    4   11    7
  0.0273974529763820    12    4   12    4
 -0.0105805927900468    12    5   10    3
 -0.0050351674169383    12    5   10    7
  0.0090713286898241    12    5   12    5
 -0.0008210301690948    12    6   12    1
 -0.0020983510457373    12    6   12    2
  0.0024782249209596    12    6   12    6
 -0.0050351674169383    12    7   10    5
 -0.0073955347187194    12    7   10    9
 -0.0029472966701007    12    7   11    4
 -0.0030460795105624    12    7   11    8
  0.0041124880013040    12    7   12    3
  0.0067809730959115    12    7   12    7
  0.0079824640870390    12    8   11    3
  0.0104416142292818    12    8   11    7
  0.0128336537920565    12    8   12    4
  0.0195904149778732    12    8   12    8
 -0.0050351674169383    12    9   10    3
 -0.0073955347187194    12    9   10    7
  0.0041124880013040    12    9   12    5
  0.0067809730959115    12    9   12    9
 -0.0076762700704008    12   10    5    3
 -0.0010493881839382    12   10    7    5
 -0.0010493881839382    12   10    9    3
 -0.0065229130931784    12   10    9    7
  0.0092721200876023    12   10   12   10
  0.0038381350352004    12   11    4    3
  0.0005246940919691    12   11    7    4
  0.0005246940919691    12   11    8    3
  0.0032614565465892    12   11    8    7
  0.0057891958500867    12   11   12   11
  0.2166636663626907    12   12    1    1
 -0.0013356168202635    12   12    2    1
  0.1773295204117191    12   12    2    2
  0.2010209148067709    12   12    3    3
  0.2143166045813255    12   12    4    4
  0.2010209148067709    12   12    5    5
  0.0005090726028779    12   12    6    1
 -0.0238221259633411    12   12    6    2
  0.1046308521348701    12   12    6    6
 -0.0139893497117606    12   12    7    3
  0.1416078299982948    12   12    7    7
 -0.0121717560603172    12   12    8    4
  0.1529058468890361    12   12    8    8
 -0.0139893497117606    12   12    9    5
  0.1416078299982948    12   12    9    9
  0.1620245449341613    12   12   10   10
  0.1689903934091925    12   12   11   11
  0.1805687851093659    12   12   12   12
  0.0010394126264965    13    1   13    1
  0.0023813730643726    13    2   13    1
  0.0179173583814584    13    2   13    2
  0.0029626205943047    13    3   10    4
  0.0012054327377199    13    3   10    8
  0.0029626205943047    13    3   11    5
  0.0012054327377199    13    3   11    9
  0.0029626205943047    13    3   13    3
  0.0153635036922532    13    4   10    3
  0.0075157330530326    13    4   10    7
 -0.0054491833971611    13    4   12    5
 -0.0029472966701007    13    4   12    9
  0.0212887448808627    13    4   13    4
  0.0153635036922532    13    5   11    3
  0.0075157330530326    13    5   11    7
  0.0160297761872078    13    5   12    4
  0.0079824640870390    13    5   12    8
  0.0212887448808627    13    5   13    5
 -0.0008210301690948    13    6   13    1
 -0.0020983510457373    13    6   13    2
  0.0024782249209596    13    6   13    6
  0.0012054327377199    13    7   10    4
  0.0025111591352577    13    7   10    8
  0.0012054327377199    13    7   11    5
  0.0025111591352577    13    7   11    9
  0.0012054327377199    13    7   13    3
  0.0025111591352577    13    7   13    7
  0.0075157330530326    13    8   10    3
  0.0102982827467040    13    8   10    7
 -0.0029472966701007    13    8   12    5
 -0.0030460795105624    13    8   12    9
  0.0099265985284723    13    8   13    4
  0.0153206010172193    13    8   13    8
  0.0075157330530326    13    9   11    3
  0.0102982827467040    13    9   11    7
  0.0079824640870390    13    9   12    4
  0.0104416142292818    13    9   12    8
  0.0099265985284723    13    9   13    5
  0.0153206010172193    13    9   13    9
  0.0066478448872773    13   10    4    3
  0.0009087968257217    13   10    7    4
  0.0009087968257217    13   10    8    3
  0.0056490084453706    13   10    8    7
  0.0020108672460967    13   10   12   11
  0.0081111453417638    13   10   13   10
  0.0066478448872773    13   11    5    3
  0.0009087968257217    13   11    7    5
  0.0009087968257217    13   11    9    3
  0.0056490084453706    13   11    9    7
 -0.0040217344921934    13   11   12   10
  0.0081111453417637    13   11   13   11
  0.0038381350352004    13   12    5    4
  0.0005246940919691    13   12    8    5
  0.0005246940919691    13   12    9    4
  0.0032614565465892    13   12    9    8
  0.0020108672460967    13   12   11   10
  0.0057891958500867    13   12   13   12
  0.2166636663626906    13   13    1    1
 -0.0013356168202635    13   13    2    1
  0.1773295204117190    13   13    2    2
  0.1965890182152527    13   13    3    3
  0.2098847079898073    13   13    4    4
  0.2098847079898072    13   13    5    5
  0.0005090726028779    13   13    6    1
 -0.0238221259633411    13   13    6    2
  0.1046308521348700    13   13    6    6
 -0.0145952142622418    13   13    7    3
  0.1378418243680477    13   13    7    7
 -0.0127776206107983    13   13    8    4
  0.1491398412587890    13   13    8    8
 -0.0127776206107983    13   13    9    5
  0.1491398412587890    13   13    9    9
  0.1643464944258383    13   13   10   10
  0.1643464944258383    13   13   11   11
  0.1689903934091925    13   13   12   12
  0.1805687851093658    13   13   13   13
  0.0010394126264965    14    1   14    1
  0.0023813730643726    14    2   14    1
  0.0179173583814584    14    2   14    2
 -0.0124008830979485    14    3   10    5
 -0.0063103003153128    14    3   10    9
 -0.0153635036922532    14    3   11    4
 -0.0075157330530326    14    3   11    8
  0.0105805927900468    14    3   12    3
  0.0050351674169383    14    3   12    7
  0.0212887448808627    14    3   14    3
 -0.0029626205943047    14    4   11    3
 -0.0012054327377199    14    4   11    7
  0.0029626205943047    14    4   13    5
  0.0012054327377199    14    4   13    9
  0.0029626205943047    14    4   14    4
  0.0124008830979485    14    5   10    3
  0.0063103003153128    14    5   10    7
 -0.0105805927900468    14    5   12    5
 -0.0050351674169383    14    5   12    9
  0.0153635036922532    14    5   13    4
  0.0075157330530326    14    5   13    8
  0.0212887448808627    14    5   14    5
 -0.0008210301690948    14    6   14    1
 -0.0020983510457373    14    6   14    2
  0.0024782249209596    14    6   14    6
 -0.0063103003153128    14    7   10    5
 -0.0077871236114463    14    7   10    9
 -0.0075157330530326    14    7   11    4
 -0.0102982827467040    14    7   11    8
  0.0050351674169383    14    7   12    3
  0.0073955347187194    14    7   12    7
  0.0099265985284723    14    7   14    3
  0.0153206010172193    14    7   14    7
 -0.0012054327377199    14    8   11    3
 -0.0025111591352577    14    8   11    7
  0.0012054327377199    14    8   13    5
  0.0025111591352577    14    8   13    9
  0.0012054327377199    14    8   14    4
  0.0025111591352577    14    8   14    8
  0.0063103003153128    14    9   10    3
  0.0077871236114463    14    9   10    7
 -0.0050351674169383    14    9   12    5
 -0.0073955347187194    14    9   12    9
  0.0075157330530326    14    9   13    4
  0.0102982827467040    14    9   13    8
  0.0099265985284723    14    9   14    5
  0.0153206010172193    14    9   14    9
  0.0046282211042482    14   10   14   10
 -0.0066478448872773    14   11    4    3
 -0.0009087968257217    14   11    7    4
 -0.0009087968257217    14   11    8    3
 -0.0056490084453706    14   11    8    7
 -0.0020108672460967    14   11   12   11
 -0.0034829242375156    14   11   13   10
  0.0081111453417638    14   11   14   11
  0.0076762700704008    14   12    3    3
 -0.0076762700704008    14   12    5    5
  0.0010493881839382    14   12    7    3
  0.0065229130931784    14   12    7    7
 -0.0010493881839382    14   12    9    5
 -0.0065229130931784    14   12    9    9
  0.0040217344921934    14   12   11   11
 -0.0040217344921934    14   12   13   13
  0.0092721200876023    14   12   14   12
  0.0066478448872773    14   13    5    4
  0.0009087968257217    14   13    8    5
  0.0009087968257217    14   13    9    4
  0.0056490084453706    14   13    9    8
  0.0034829242375156    14   13   11   10
  0.0020108672460967    14   13   13   12
  0.0081111453417638    14   13   14   13
  0.2166636663626906    14   14    1    1
 -0.0013356168202635    14   14    2    1
  0.1773295204117190    14   14    2    2
  0.2098847079898072    14   14    3    3
  0.1965890182152527    14   14    4    4
  0.2098847079898072    14   14    5    5
  0.0005090726028779    14   14    6    1
 -0.0238221259633411    14   14    6    2
  0.1046308521348700    14   14    6    6
 -0.0127776206107983    14   14    7    3
  0.1491398412587890    14   14    7    7
 -0.0145952142622418    14   14    8    4
  0.1378418243680477    14   14    8    8
 -0.0127776206107983    14   14    9    5
  0.1491398412587890    14   14    9    9
  0.1713123429008694    14   14   10   10
  0.1643464944258383    14   14   11   11
  0.1620245449341613    14   14   12   12
  0.1643464944258383    14   14   13   13
  0.1805687851093657    14   14   14   14
 -1.9436922753095127     1    1    0    0
  0.1208275265172337     2    1    0    0
 -0.4245754726826533     2    2    0    0
 -0.4946176016046448     3    3    0    0
 -0.4946176016046448     4    4    0    0
 -0.4946176016046448     5    5    0    0
 -0.0645425455091851     6    1    0    0
  0.0678707980175733     6    2    0    0
 -0.1907076205722735     6    6    0    0
  0.0227663056193971     7    3    0    0
 -0.2212135899055739     7    7    0    0
  0.0227663056193971     8    4    0    0
 -0.2212135899055739     8    8    0    0
  0.0227663056193971     9    5    0    0
 -0.2212135899055739     9    9    0    0
 -0.2220916711851235    10   10    0    0
 -0.2220916711851235    11   11    0    0
 -0.2220916711851235    12   12    0    0
 -0.2220916711851235    13   13    0    0
 -0.2220916711851235    14   14    0    0
  0.0000000000000000     0    0    0    0
