 &FCI NORB=   30,NELEC=  1,MS2=  0
  ORBSYM=1,1,1,1,1,1,1,1,1,1,1,1,1,1,1,1,1,1,1,1,1,1,1,1,1,1,1,1,1,1 
  $END
   6.2585627461662663E-01    1   1   1   1
  -8.9614546194028505E-02    2   1   1   1
   2.2033120816168296E-02    2   1   2   1
  -8.6068410439859751E-03    2   1   2   2
   2.0996176435862993E-01    2   2   1   1
  -8.6068410439859768E-03    2   2   2   1
   1.5040728171533646E-01    2   2   2   2
   6.2585627461662696E-01    3   3   1   1
  -8.9614546194028602E-02    3   3   2   1
   2.0996176435863012E-01    3   3   2   2
   6.2767345263371488E-01    3   3   3   3
   4.0163855416481327E-02    4   1   4   1
  -7.5304850902918573E-03    4   1   4   2
  -7.5304850902918434E-03    4   2   4   1
   4.0927256984342681E-03    4   2   4   2
   6.2585627461662696E-01    4   4   1   1
  -8.9614546194028602E-02    4   4   2   1
   2.0996176435863012E-01    4   4   2   2
   6.2222191858245224E-01    4   4   3   3
   6.3312498668497741E-01    4   4   4   4
  -4.0163855416481327E-02    5   1   3   1
   7.5304850902918573E-03    5   1   3   2
   7.5304850902918434E-03    5   2   3   1
  -4.0927256984342681E-03    5   2   3   2
   6.2585627461662696E-01    5   5   1   1
  -8.9614546194028602E-02    5   5   2   1
   2.0996176435863012E-01    5   5   2   2
   6.2767345263371488E-01    5   5   3   3
   6.2222191858245224E-01    5   5   4   4
   6.2767345263371488E-01    5   5   5   5
  -4.4096943711691323E-02    6   1   1   1
   1.1268558365498074E-02    6   1   2   1
  -3.9495205908898524E-03    6   1   2   2
  -4.4096943711691344E-02    6   1   3   3
  -4.4096943711691344E-02    6   1   4   4
  -4.4096943711691344E-02    6   1   5   5
   5.7922986124696050E-03    6   1   6   1
  -2.1163238329619687E-03    6   1   6   2
  -1.1350390632932112E-03    6   1   6   6
   5.0572101241593941E-02    6   2   1   1
  -4.5564155632188954E-03    6   2   2   1
   2.1474531027227742E-02    6   2   2   2
   5.0572101241593961E-02    6   2   3   3
   5.0572101241593961E-02    6   2   4   4
   5.0572101241593961E-02    6   2   5   5
  -2.1163238329619670E-03    6   2   6   1
   7.4800063466948135E-03    6   2   6   2
   4.6490749611761114E-03    6   2   6   6
   3.5463436412422888E-03    6   3   3   1
  -2.3396599017363093E-03    6   3   3   2
  -1.3962206227460074E-03    6   3   6   5
   3.5463436412422888E-03    6   4   4   1
  -2.3396599017363093E-03    6   4   4   2
   1.3962206227460074E-03    6   4   6   4
   3.5463436412422888E-03    6   5   5   1
  -2.3396599017363093E-03    6   5   5   2
  -1.3962206227460074E-03    6   5   6   3
   9.9511771494038254E-02    6   6   1   1
  -2.4361376389343829E-03    6   6   2   1
   8.4117906752573149E-02    6   6   2   2
   9.9511771494038295E-02    6   6   3   3
   9.9511771494038295E-02    6   6   4   4
   9.9511771494038295E-02    6   6   5   5
  -1.1350390632932118E-03    6   6   6   1
   4.6490749611761183E-03    6   6   6   2
   6.6407891309322231E-02    6   6   6   6
   7.5304850902918434E-03    7   1   5   1
  -4.0927256984342681E-03    7   1   5   2
  -2.3396599017363059E-03    7   1   6   3
  -1.4793821126024309E-02    7   2   5   1
  -9.6316862553554028E-04    7   2   5   2
  -5.9514833065618222E-04    7   2   6   3
  -8.9614546194028546E-02    7   3   1   1
   2.2033120816168306E-02    7   3   2   1
  -8.6068410439859785E-03    7   3   2   2
  -8.9977044529715250E-02    7   3   3   3
  -8.8889549522655306E-02    7   3   4   4
  -8.9977044529715250E-02    7   3   5   5
   1.1268558365498079E-02    7   3   6   1
  -4.5564155632188928E-03    7   3   6   2
  -2.4361376389343829E-03    7   3   6   6
   2.2321038897589272E-02    7   3   7   3
  -8.5220079770674147E-03    7   3   7   7
  -1.0874950070599459E-03    7   4   4   3
   1.0874950070599459E-03    7   4   5   4
  -2.1749900141198914E-03    7   5   5   3
   5.6487571259428602E-03    7   6   5   1
  -5.8475447457846858E-04    7   6   5   2
  -1.8199559215626568E-04    7   6   6   3
   2.0996176435863001E-01    7   7   1   1
  -8.6068410439859803E-03    7   7   2   1
   1.5040728171533652E-01    7   7   2   2
   2.1068195696553513E-01    7   7   3   3
   2.0852137914482019E-01    7   7   4   4
   2.1068195696553513E-01    7   7   5   5
  -3.9495205908898602E-03    7   7   6   1
   2.1474531027227770E-02    7   7   6   2
   8.4117906752573260E-02    7   7   6   6
  -8.5220079770674164E-03    7   7   7   3
   1.5127026878606739E-01    7   7   7   7
  -7.5304850902918434E-03    8   1   4   1
   4.0927256984342681E-03    8   1   4   2
  -2.3396599017363059E-03    8   1   6   4
   4.0927256984342681E-03    8   1   8   1
   9.6316862553554505E-04    8   1   8   2
   5.8475447457846815E-04    8   1   8   6
   1.4793821126024309E-02    8   2   4   1
   9.6316862553554028E-04    8   2   4   2
  -5.9514833065618222E-04    8   2   6   4
   9.6316862553554039E-04    8   2   8   1
   1.5815357028942132E-02    8   2   8   2
  -2.2692015245053586E-03    8   2   8   6
   8.6375424426285040E-04    8   3   7   4
  -8.6375424426285040E-04    8   3   8   5
  -8.9614546194028546E-02    8   4   1   1
   2.2033120816168306E-02    8   4   2   1
  -8.6068410439859785E-03    8   4   2   2
  -8.8889549522655306E-02    8   4   3   3
  -9.1064539536775194E-02    8   4   4   4
  -8.8889549522655306E-02    8   4   5   5
   1.1268558365498079E-02    8   4   6   1
  -4.5564155632188928E-03    8   4   6   2
  -2.4361376389343829E-03    8   4   6   6
   2.1457284653326421E-02    8   4   7   3
  -8.7765071778231271E-03    8   4   7   7
   2.3184793141852122E-02    8   4   8   4
  -8.2675087763117040E-03    8   4   8   8
   1.0874950070599459E-03    8   5   4   3
  -1.0874950070599459E-03    8   5   5   4
  -8.6375424426285040E-04    8   5   8   3
  -2.5449920075571114E-04    8   5   8   7
  -5.6487571259428602E-03    8   6   4   1
   5.8475447457846858E-04    8   6   4   2
  -1.8199559215626568E-04    8   6   6   4
   5.8475447457846858E-04    8   6   8   1
  -2.2692015245053547E-03    8   6   8   2
   1.7957900577235434E-03    8   6   8   6
   2.5449920075571044E-04    8   7   7   4
  -2.5449920075571044E-04    8   7   8   5
   2.0996176435863001E-01    8   8   1   1
  -8.6068410439859803E-03    8   8   2   1
   1.5040728171533652E-01    8   8   2   2
   2.0852137914482019E-01    8   8   3   3
   2.1284253478625009E-01    8   8   4   4
   2.0852137914482019E-01    8   8   5   5
  -3.9495205908898602E-03    8   8   6   1
   2.1474531027227770E-02    8   8   6   2
   8.4117906752573260E-02    8   8   6   6
  -8.7765071778231271E-03    8   8   7   3
   1.4868130757387510E-01    8   8   7   7
  -8.2675087763117057E-03    8   8   8   4
   1.5385922999825968E-01    8   8   8   8
   7.5304850902918434E-03    9   1   3   1
  -4.0927256984342681E-03    9   1   3   2
  -2.3396599017363059E-03    9   1   6   5
  -4.0927256984342681E-03    9   1   7   1
  -9.6316862553554505E-04    9   1   7   2
  -5.8475447457846815E-04    9   1   7   6
  -1.4793821126024309E-02    9   2   3   1
  -9.6316862553554028E-04    9   2   3   2
  -5.9514833065618222E-04    9   2   6   5
  -9.6316862553554039E-04    9   2   7   1
  -1.5815357028942132E-02    9   2   7   2
   2.2692015245053586E-03    9   2   7   6
   1.7275084885257004E-03    9   3   7   5
  -8.6375424426285040E-04    9   4   7   4
   8.6375424426285040E-04    9   4   8   5
  -8.9614546194028546E-02    9   5   1   1
   2.2033120816168306E-02    9   5   2   1
  -8.6068410439859785E-03    9   5   2   2
  -8.9977044529715250E-02    9   5   3   3
  -8.8889549522655306E-02    9   5   4   4
  -8.9977044529715250E-02    9   5   5   5
   1.1268558365498079E-02    9   5   6   1
  -4.5564155632188928E-03    9   5   6   2
  -2.4361376389343829E-03    9   5   6   6
   2.2321038897589272E-02    9   5   7   3
  -8.5220079770674147E-03    9   5   7   7
   2.1457284653326421E-02    9   5   8   4
  -8.7765071778231271E-03    9   5   8   8
   2.2321038897589272E-02    9   5   9   5
  -8.5220079770674147E-03    9   5   9   9
   5.6487571259428602E-03    9   6   3   1
  -5.8475447457846858E-04    9   6   3   2
  -1.8199559215626568E-04    9   6   6   5
  -5.8475447457846858E-04    9   6   7   1
   2.2692015245053547E-03    9   6   7   2
  -1.7957900577235434E-03    9   6   7   6
   5.0899840151142077E-04    9   7   7   5
  -2.5449920075571044E-04    9   8   7   4
   2.5449920075571044E-04    9   8   8   5
   2.0996176435863001E-01    9   9   1   1
  -8.6068410439859803E-03    9   9   2   1
   1.5040728171533652E-01    9   9   2   2
   2.1068195696553513E-01    9   9   3   3
   2.0852137914482019E-01    9   9   4   4
   2.1068195696553513E-01    9   9   5   5
  -3.9495205908898602E-03    9   9   6   1
   2.1474531027227770E-02    9   9   6   2
   8.4117906752573260E-02    9   9   6   6
  -8.5220079770674164E-03    9   9   7   3
   1.5127026878606739E-01    9   9   7   7
  -8.7765071778231271E-03    9   9   8   4
   1.4868130757387510E-01    9   9   8   8
  -8.5220079770674164E-03    9   9   9   5
   1.5127026878606739E-01    9   9   9   9
  -9.9530939096134953E-03   10   1   5   3
   1.9854851551365763E-03   10   1   9   3
  -3.9446573655031181E-03   10   1   9   7
   1.9854851551365728E-03   10   2   5   3
  -1.5769922790786336E-03   10   2   9   3
  -4.6464984373646235E-04   10   2   9   7
  -4.3997299215965742E-02   10   3   5   1
   8.2492331058183557E-03   10   3   5   2
   3.8848248179468234E-03   10   3   6   3
   8.2492331058183557E-03   10   3   9   1
  -1.6205819084840013E-02   10   3   9   2
   6.1879033994939030E-03   10   3   9   6
  -7.7065135624601599E-04   10   6   5   3
   9.3903948189363754E-04   10   6   9   3
   2.5675606281710912E-04   10   6   9   7
   8.2492331058183401E-03   10   7   5   1
  -4.4833563734270688E-03   10   7   5   2
  -2.5629690101425903E-03   10   7   6   3
  -4.4833563734270688E-03   10   7   9   1
  -1.0550983657741286E-03   10   7   9   2
  -6.4056643265741648E-04   10   7   9   6
   6.2585627461662652E-01   10  10   1   1
  -8.9614546194028546E-02   10  10   2   1
   2.0996176435862998E-01   10  10   2   2
   6.2845224321246607E-01   10  10   3   3
   6.2066433742494809E-01   10  10   4   4
   6.2845224321246607E-01   10  10   5   5
  -4.4096943711691365E-02   10  10   6   1
   5.0572101241593934E-02   10  10   6   2
   9.9511771494038337E-02   10  10   6   6
  -9.0132400959295214E-02   10  10   7   3
   2.1099061093992294E-01   10  10   7   7
  -8.8578836663495295E-02   10  10   8   4
   2.0790407119604443E-01   10  10   8   8
  -9.0132400959295214E-02   10  10   9   5
   2.1099061093992294E-01   10  10   9   9
   6.2959462781038911E-01   10  10  10  10
   7.0379001972742296E-03   11   1   4   3
  -7.0379001972742296E-03   11   1   5   4
  -1.4039500171422977E-03   11   1   8   3
   2.7892939726047168E-03   11   1   8   7
   1.4039500171422977E-03   11   1   9   4
  -2.7892939726047168E-03   11   1   9   8
   7.1093527925810730E-03   11   1  11  10
  -1.4039500171422953E-03   11   2   4   3
   1.4039500171422953E-03   11   2   5   4
   1.1151019344153303E-03   11   2   8   3
   3.2855705538332227E-04   11   2   8   7
  -1.1151019344153303E-03   11   2   9   4
  -3.2855705538332227E-04   11   2   9   8
  -1.4182036822404103E-03   11   2  11  10
   3.1110788629502943E-02   11   3   4   1
  -5.8330886687127234E-03   11   3   4   2
   2.7469859724919940E-03   11   3   6   4
  -5.8330886687127234E-03   11   3   8   1
   1.1459244569572742E-02   11   3   8   2
  -4.3755084551094286E-03   11   3   8   6
   2.4929792542531363E-02   11   3  11   3
  -4.3514523608835709E-03   11   3  11   7
  -3.1110788629502943E-02   11   4   5   1
   5.8330886687127234E-03   11   4   5   2
   2.7469859724919940E-03   11   4   6   3
   5.8330886687127234E-03   11   4   9   1
  -1.1459244569572742E-02   11   4   9   2
   4.3755084551094286E-03   11   4   9   6
   5.4493279993216785E-04   11   6   4   3
  -5.4493279993216785E-04   11   6   5   4
  -6.6400118544889344E-04   11   6   8   3
  -1.8155395312873706E-04   11   6   8   7
   6.6400118544889344E-04   11   6   9   4
   1.8155395312873706E-04   11   6   9   8
   5.5046525446144040E-04   11   6  11  10
  -5.8330886687127121E-03   11   7   4   1
   3.1702116941262071E-03   11   7   4   2
  -1.8122927670427989E-03   11   7   6   4
   3.1702116941262071E-03   11   7   8   1
   7.4606720925773061E-04   11   7   8   2
   4.5294886833253505E-04   11   7   8   6
  -4.3514523608835639E-03   11   7  11   3
   2.6240315921555284E-03   11   7  11   7
   5.8330886687127121E-03   11   8   5   1
  -3.1702116941262071E-03   11   8   5   2
  -1.8122927670427989E-03   11   8   6   3
  -3.1702116941262071E-03   11   8   9   1
  -7.4606720925773061E-04   11   8   9   2
  -4.5294886833253505E-04   11   8   9   6
  -1.0985358485694310E-03   11  10   7   4
   1.0985358485694310E-03   11  10   8   5
   7.1093527925810713E-03   11  10  11   1
  -1.4182036822404124E-03   11  10  11   2
   5.5046525446144072E-04   11  10  11   6
   6.2585627461662652E-01   11  11   1   1
  -8.9614546194028546E-02   11  11   2   1
   2.0996176435862998E-01   11  11   2   2
   6.2455829031870702E-01   11  11   3   3
   6.2845224321246607E-01   11  11   4   4
   6.2455829031870702E-01   11  11   5   5
  -4.4096943711691365E-02   11  11   6   1
   5.0572101241593934E-02   11  11   6   2
   9.9511771494038337E-02   11  11   6   6
  -8.9355618811395254E-02   11  11   7   3
   2.0944734106798368E-01   11  11   7   7
  -9.0132400959295214E-02   11  11   8   4
   2.1099061093992294E-01   11  11   8   8
  -8.9355618811395254E-02   11  11   9   5
   2.0944734106798368E-01   11  11   9   9
   6.2388270482077124E-01   11  11  10  10
   6.2726063231044737E-01   11  11  11  11
  -4.0633335734259974E-03   12   1   3   3
   8.1266671468519947E-03   12   1   4   4
  -4.0633335734259974E-03   12   1   5   5
   8.1057092032588542E-04   12   1   7   3
  -1.6103996259323342E-03   12   1   7   7
  -1.6211418406517708E-03   12   1   8   4
   3.2207992518646683E-03   12   1   8   8
   8.1057092032588542E-04   12   1   9   5
  -1.6103996259323342E-03   12   1   9   9
  -5.8047622477514250E-03   12   1  10  10
   2.9023811238757125E-03   12   1  11  11
   9.0858900854376579E-03   12   1  12   1
  -1.8124916784332450E-03   12   1  12   2
   7.0350521964648838E-04   12   1  12   6
   5.8047622477514250E-03   12   1  12  12
   8.1057092032588401E-04   12   2   3   3
  -1.6211418406517680E-03   12   2   4   4
   8.1057092032588401E-04   12   2   5   5
  -6.4380440200856358E-04   12   2   7   3
  -1.8969250436971192E-04   12   2   7   7
   1.2876088040171272E-03   12   2   8   4
   3.7938500873942383E-04   12   2   8   8
  -6.4380440200856358E-04   12   2   9   5
  -1.8969250436971192E-04   12   2   9   9
   1.1579584576084058E-03   12   2  10  10
  -5.7897922880420288E-04   12   2  11  11
  -1.8124916784332417E-03   12   2  12   1
   1.4395904071047496E-03   12   2  12   2
  -8.5722184436851415E-04   12   2  12   6
  -1.1579584576084058E-03   12   2  12  12
  -1.7961822189945079E-02   12   3   3   1
   3.3677353130882473E-03   12   3   3   2
   1.5859730906783787E-03   12   3   6   5
   3.3677353130882473E-03   12   3   7   1
  -6.6159979369525817E-03   12   3   7   2
   2.5262009843989128E-03   12   3   7   6
  -2.0355090374214378E-02   12   3  10   3
   3.5529459747313174E-03   12   3  10   7
  -1.1992948468108094E-02   12   3  11   4
   2.9939340143375530E-03   12   3  11   8
  -9.6957296685813935E-03   12   3  12   5
   1.1724196314752851E-03   12   3  12   9
   3.5923644379890159E-02   12   4   4   1
  -6.7354706261764947E-03   12   4   4   2
   3.1719461813567574E-03   12   4   6   4
  -6.7354706261764947E-03   12   4   8   1
   1.3231995873905163E-02   12   4   8   2
  -5.0524019687978256E-03   12   4   8   6
   2.6386170903380104E-02   12   4  11   3
  -5.5062462062595158E-03   12   4  11   7
   3.4625522211112758E-02   12   4  12   4
  -5.5238719923588571E-03   12   4  12   8
  -1.7961822189945079E-02   12   5   5   1
   3.3677353130882473E-03   12   5   5   2
   1.5859730906783787E-03   12   5   6   3
   3.3677353130882473E-03   12   5   9   1
  -6.6159979369525817E-03   12   5   9   2
   2.5262009843989128E-03   12   5   9   6
  -9.6957296685813935E-03   12   5  12   3
   1.1724196314752851E-03   12   5  12   7
  -3.1461709873109361E-04   12   6   3   3
   6.2923419746218723E-04   12   6   4   4
  -3.1461709873109361E-04   12   6   5   5
   3.8336126316114932E-04   12   6   7   3
   1.0482022371131705E-04   12   6   7   7
  -7.6672252632229863E-04   12   6   8   4
  -2.0964044742263410E-04   12   6   8   8
   3.8336126316114932E-04   12   6   9   5
   1.0482022371131705E-04   12   6   9   9
  -4.4945299818727663E-04   12   6  10  10
   2.2472649909363831E-04   12   6  11  11
   7.0350521964648784E-04   12   6  12   1
  -8.5722184436851534E-04   12   6  12   2
   5.6764078094989352E-04   12   6  12   6
   4.4945299818727663E-04   12   6  12  12
   3.3677353130882413E-03   12   7   3   1
  -1.8303225749918659E-03   12   7   3   2
  -1.0463277169025717E-03   12   7   6   5
  -1.8303225749918659E-03   12   7   7   1
  -4.3074210409850376E-04   12   7   7   2
  -2.6151015106092555E-04   12   7   7   6
   3.5529459747313114E-03   12   7  10   3
  -2.1425128232413263E-03   12   7  10   7
   2.9939340143375465E-03   12   7  11   4
  -1.0288674667586662E-03   12   7  11   8
   1.1724196314752838E-03   12   7  12   5
  -1.1553374858767880E-03   12   7  12   9
  -6.7354706261764825E-03   12   8   4   1
   3.6606451499837317E-03   12   8   4   2
  -2.0926554338051434E-03   12   8   6   4
   3.6606451499837317E-03   12   8   8   1
   8.6148420819700752E-04   12   8   8   2
   5.2302030212185110E-04   12   8   8   6
  -5.5062462062595054E-03   12   8  11   3
   2.5438528128517426E-03   12   8  11   7
  -5.5238719923588484E-03   12   8  12   4
   3.7793690780323170E-03   12   8  12   8
   3.3677353130882413E-03   12   9   5   1
  -1.8303225749918659E-03   12   9   5   2
  -1.0463277169025717E-03   12   9   6   3
  -1.8303225749918659E-03   12   9   9   1
  -4.3074210409850376E-04   12   9   9   2
  -2.6151015106092555E-04   12   9   9   6
   1.1724196314752838E-03   12   9  12   3
  -1.1553374858767880E-03   12   9  12   7
  -1.2684799357720294E-03   12  10   7   5
  -5.8047622477514250E-03   12  10  10   1
   1.1579584576084077E-03   12  10  10   2
  -4.4945299818727695E-04   12  10  10   6
  -4.4847538219173913E-04   12  11   7   4
   4.4847538219173913E-04   12  11   8   5
   2.9023811238757125E-03   12  11  11   1
  -5.7897922880420386E-04   12  11  11   2
   2.2472649909363848E-04   12  11  11   6
   6.2585627461662652E-01   12  12   1   1
  -8.9614546194028546E-02   12  12   2   1
   2.0996176435863001E-01   12  12   2   2
   6.2326030602078741E-01   12  12   3   3
   6.3104821180830539E-01   12  12   4   4
   6.2326030602078741E-01   12  12   5   5
  -4.4096943711691365E-02   12  12   6   1
   5.0572101241593941E-02   12  12   6   2
   9.9511771494038351E-02   12  12   6   6
  -8.9096691428761934E-02   12  12   7   3
   2.0893291777733725E-01   12  12   7   7
  -9.0650255724561854E-02   12  12   8   4
   2.1201945752121576E-01   12  12   8   8
  -8.9096691428761934E-02   12  12   9   5
   2.0893291777733725E-01   12  12   9   9
   6.2232670782081023E-01   12  12  10  10
   6.2699469882069359E-01   12  12  11  11
   5.8047622477514250E-03   12  12  12   1
  -1.1579584576084077E-03   12  12  12   2
   4.4945299818727695E-04   12  12  12   6
   6.3063855980012384E-01   12  12  12  12
   1.4039500171422977E-03   13   1   7   4
  -1.4039500171422977E-03   13   1   8   5
  -9.0858900854376579E-03   13   1  11   1
   1.8124916784332450E-03   13   1  11   2
  -7.0350521964648838E-04   13   1  11   6
  -1.1151019344153303E-03   13   2   7   4
   1.1151019344153303E-03   13   2   8   5
   1.8124916784332417E-03   13   2  11   1
  -1.4395904071047496E-03   13   2  11   2
   8.5722184436851415E-04   13   2  11   6
  -1.9598154874791661E-03   13   3  10   4
  -3.9324257130250994E-04   13   3  10   8
   2.7715976421418750E-03   13   3  11   5
   5.5612897763847834E-04   13   3  11   9
  -3.1110788629502943E-02   13   4   3   1
   5.8330886687127234E-03   13   4   3   2
   2.7469859724919940E-03   13   4   6   5
   5.8330886687127234E-03   13   4   7   1
  -1.1459244569572742E-02   13   4   7   2
   4.3755084551094286E-03   13   4   7   6
  -3.3296235233316332E-02   13   4  10   3
   6.5471255160844798E-03   13   4  10   7
  -2.6315591363602300E-02   13   4  11   4
   4.0733878720643317E-03   13   4  11   8
  -1.1992948468108095E-02   13   4  12   5
   2.9939340143375530E-03   13   4  12   9
   3.1110788629502943E-02   13   5   4   1
  -5.8330886687127234E-03   13   5   4   2
   2.7469859724919940E-03   13   5   6   4
  -5.8330886687127234E-03   13   5   8   1
   1.1459244569572742E-02   13   5   8   2
  -4.3755084551094286E-03   13   5   8   6
   2.4929792542531363E-02   13   5  11   3
  -4.3514523608835709E-03   13   5  11   7
   2.6386170903380107E-02   13   5  12   4
  -5.5062462062595158E-03   13   5  12   8
   2.4929792542531363E-02   13   5  13   5
  -4.3514523608835709E-03   13   5  13   9
   6.6400118544889344E-04   13   6   7   4
  -6.6400118544889344E-04   13   6   8   5
  -7.0350521964648784E-04   13   6  11   1
   8.5722184436851534E-04   13   6  11   2
  -5.6764078094989352E-04   13   6  11   6
  -3.9324257130250810E-04   13   7  10   4
  -3.9691358640438310E-04   13   7  10   8
   5.5612897763847584E-04   13   7  11   5
   5.6132057698322381E-04   13   7  11   9
   5.8330886687127121E-03   13   8   3   1
  -3.1702116941262071E-03   13   8   3   2
  -1.8122927670427989E-03   13   8   6   5
  -3.1702116941262071E-03   13   8   7   1
  -7.4606720925773061E-04   13   8   7   2
  -4.5294886833253505E-04   13   8   7   6
   6.5471255160844677E-03   13   8  10   3
  -3.3140274793174310E-03   13   8  10   7
   4.0733878720643265E-03   13   8  11   4
  -2.9046918806471403E-03   13   8  11   8
   2.9939340143375465E-03   13   8  12   5
  -1.0288674667586664E-03   13   8  12   9
  -5.8330886687127121E-03   13   9   4   1
   3.1702116941262071E-03   13   9   4   2
  -1.8122927670427989E-03   13   9   6   4
   3.1702116941262071E-03   13   9   8   1
   7.4606720925773061E-04   13   9   8   2
   4.5294886833253505E-04   13   9   8   6
  -4.3514523608835639E-03   13   9  11   3
   2.6240315921555284E-03   13   9  11   7
  -5.5062462062595054E-03   13   9  12   4
   2.5438528128517430E-03   13   9  12   8
  -4.3514523608835639E-03   13   9  13   5
   2.6240315921555284E-03   13   9  13   9
  -1.5535642957999257E-03   13  11   7   5
  -7.1093527925810713E-03   13  11  10   1
   1.4182036822404124E-03   13  11  10   2
  -5.5046525446144072E-04   13  11  10   6
   4.4847538219173913E-04   13  12   7   4
  -4.4847538219173913E-04   13  12   8   5
  -2.9023811238757125E-03   13  12  11   1
   5.7897922880420386E-04   13  12  11   2
  -2.2472649909363848E-04   13  12  11   6
   6.2585627461662652E-01   13  13   1   1
  -8.9614546194028546E-02   13  13   2   1
   2.0996176435862998E-01   13  13   2   2
   6.2455829031870702E-01   13  13   3   3
   6.2845224321246607E-01   13  13   4   4
   6.2455829031870702E-01   13  13   5   5
  -4.4096943711691365E-02   13  13   6   1
   5.0572101241593934E-02   13  13   6   2
   9.9511771494038337E-02   13  13   6   6
  -8.9355618811395254E-02   13  13   7   3
   2.0944734106798368E-01   13  13   7   7
  -9.0132400959295214E-02   13  13   8   4
   2.1099061093992294E-01   13  13   8   8
  -8.9355618811395254E-02   13  13   9   5
   2.0944734106798368E-01   13  13   9   9
   6.2388270482077124E-01   13  13  10  10
   6.2726063231044737E-01   13  13  11  11
   2.9023811238757125E-03   13  13  12   1
  -5.7897922880420386E-04   13  13  12   2
   2.2472649909363848E-04   13  13  12   6
   6.2699469882069359E-01   13  13  12  12
   6.2726063231044737E-01   13  13  13  13
   1.9854851551365763E-03   14   1   7   5
   9.0858900854376579E-03   14   1  10   1
  -1.8124916784332450E-03   14   1  10   2
   7.0350521964648838E-04   14   1  10   6
  -1.5769922790786336E-03   14   2   7   5
  -1.8124916784332417E-03   14   2  10   1
   1.4395904071047496E-03   14   2  10   2
  -8.5722184436851415E-04   14   2  10   6
  -4.1573964632128117E-03   14   3  10   5
  -8.3419346645771740E-04   14   3  10   9
   1.3857988210709377E-03   14   4  10   4
   2.7806448881923922E-04   14   4  10   8
  -1.9598154874791661E-03   14   4  11   5
  -3.9324257130250994E-04   14   4  11   9
  -4.3997299215965742E-02   14   5   3   1
   8.2492331058183557E-03   14   5   3   2
   3.8848248179468234E-03   14   5   6   5
   8.2492331058183557E-03   14   5   7   1
  -1.6205819084840013E-02   14   5   7   2
   6.1879033994939030E-03   14   5   7   6
  -4.8473786263991778E-02   14   5  10   3
   8.9809692105863818E-03   14   5  10   7
  -3.3296235233316332E-02   14   5  11   4
   6.5471255160844798E-03   14   5  11   8
  -2.0355090374214381E-02   14   5  12   5
   3.5529459747313179E-03   14   5  12   9
   9.3903948189363754E-04   14   6   7   5
   7.0350521964648784E-04   14   6  10   1
  -8.5722184436851534E-04   14   6  10   2
   5.6764078094989352E-04   14   6  10   6
  -8.3419346645771360E-04   14   7  10   5
  -8.4198086547483556E-04   14   7  10   9
   2.7806448881923792E-04   14   8  10   4
   2.8066028849161196E-04   14   8  10   8
  -3.9324257130250810E-04   14   8  11   5
  -3.9691358640438310E-04   14   8  11   9
   8.2492331058183401E-03   14   9   3   1
  -4.4833563734270688E-03   14   9   3   2
  -2.5629690101425903E-03   14   9   6   5
  -4.4833563734270688E-03   14   9   7   1
  -1.0550983657741286E-03   14   9   7   2
  -6.4056643265741648E-04   14   9   7   6
   8.9809692105863644E-03   14   9  10   3
  -4.9674028958194439E-03   14   9  10   7
   6.5471255160844677E-03   14   9  11   4
  -3.3140274793174310E-03   14   9  11   8
   3.5529459747313122E-03   14   9  12   5
  -2.1425128232413263E-03   14   9  12   9
  -1.2684799357720294E-03   14  12   7   5
  -5.8047622477514250E-03   14  12  10   1
   1.1579584576084077E-03   14  12  10   2
  -4.4945299818727695E-04   14  12  10   6
   1.0985358485694310E-03   14  13   7   4
  -1.0985358485694310E-03   14  13   8   5
  -7.1093527925810713E-03   14  13  11   1
   1.4182036822404124E-03   14  13  11   2
  -5.5046525446144072E-04   14  13  11   6
   6.2585627461662652E-01   14  14   1   1
  -8.9614546194028546E-02   14  14   2   1
   2.0996176435862998E-01   14  14   2   2
   6.2845224321246607E-01   14  14   3   3
   6.2066433742494809E-01   14  14   4   4
   6.2845224321246607E-01   14  14   5   5
  -4.4096943711691365E-02   14  14   6   1
   5.0572101241593934E-02   14  14   6   2
   9.9511771494038337E-02   14  14   6   6
  -9.0132400959295214E-02   14  14   7   3
   2.1099061093992294E-01   14  14   7   7
  -8.8578836663495295E-02   14  14   8   4
   2.0790407119604443E-01   14  14   8   8
  -9.0132400959295214E-02   14  14   9   5
   2.1099061093992294E-01   14  14   9   9
   6.2959462781038911E-01   14  14  10  10
   6.2388270482077124E-01   14  14  11  11
  -5.8047622477514250E-03   14  14  12   1
   1.1579584576084077E-03   14  14  12   2
  -4.4945299818727695E-04   14  14  12   6
   6.2232670782081023E-01   14  14  12  12
   6.2388270482077124E-01   14  14  13  13
   6.2959462781038911E-01   14  14  14  14
   2.7695333032979663E-02   15   1   1   1
  -7.1635388725297365E-03   15   1   2   1
   2.4360417081037834E-03   15   1   2   2
   2.7695333032979677E-02   15   1   3   3
   2.7695333032979677E-02   15   1   4   4
   2.7695333032979677E-02   15   1   5   5
  -3.6883116037052430E-03   15   1   6   1
   1.3080608113105992E-03   15   1   6   2
   7.0222798524099267E-04   15   1   6   6
  -7.1635388725297400E-03   15   1   7   3
   2.4360417081037843E-03   15   1   7   7
  -7.1635388725297400E-03   15   1   8   4
   2.4360417081037843E-03   15   1   8   8
  -7.1635388725297400E-03   15   1   9   5
   2.4360417081037843E-03   15   1   9   9
   2.7695333032979656E-02   15   1  10  10
   2.7695333032979656E-02   15   1  11  11
   2.7695333032979660E-02   15   1  12  12
   2.7695333032979656E-02   15   1  13  13
   2.7695333032979656E-02   15   1  14  14
   2.3498528945014546E-03   15   1  15   1
  -8.4463546745863955E-04   15   1  15   2
  -4.5360440144337819E-04   15   1  15   6
   2.9306212715390803E-04   15   1  15  15
  -2.8745151621916480E-02   15   2   1   1
   2.9267939459351644E-03   15   2   2   1
  -1.0558669790501579E-02   15   2   2   2
  -2.8745151621916494E-02   15   2   3   3
  -2.8745151621916494E-02   15   2   4   4
  -2.8745151621916494E-02   15   2   5   5
   1.3653257611353279E-03   15   2   6   1
  -4.1664222799469141E-03   15   2   6   2
  -2.0754381242050306E-03   15   2   6   6
   2.9267939459351657E-03   15   2   7   3
  -1.0558669790501584E-02   15   2   7   7
   2.9267939459351657E-03   15   2   8   4
  -1.0558669790501584E-02   15   2   8   8
   2.9267939459351657E-03   15   2   9   5
  -1.0558669790501584E-02   15   2   9   9
  -2.8745151621916473E-02   15   2  10  10
  -2.8745151621916473E-02   15   2  11  11
  -2.8745151621916477E-02   15   2  12  12
  -2.8745151621916473E-02   15   2  13  13
  -2.8745151621916473E-02   15   2  14  14
  -8.4463546745864042E-04   15   2  15   1
   2.3951066409174967E-03   15   2  15   2
   1.3284580798369929E-03   15   2  15   6
  -8.4483218258358129E-04   15   2  15  15
   2.1870734014773235E-03   15   3   3   1
  -1.5686075035739504E-03   15   3   3   2
  -9.5300524923570460E-04   15   3   6   5
  -1.5686075035739502E-03   15   3   7   1
  -3.8805682796997406E-04   15   3   7   2
  -9.4503879561288548E-05   15   3   7   6
   2.3958188738173653E-03   15   3  10   3
  -1.7183234271586365E-03   15   3  10   7
   1.6940997721709766E-03   15   3  11   4
  -1.2150381476155804E-03   15   3  11   8
   9.7808895949699727E-04   15   3  12   5
  -7.0150260160151980E-04   15   3  12   9
  -6.5536967149187528E-04   15   3  15   5
   1.1998895372490381E-04   15   3  15   9
   2.1870734014773235E-03   15   4   4   1
  -1.5686075035739504E-03   15   4   4   2