 &FCI NORB=   30,NELEC=  2,MS2=  0
  ORBSYM=1,1,1,1,1,1,1,1,1,1,1,1,1,1,1,1,1,1,1,1,1,1,1,1,1,1,1,1,1,1 
  $END
   1.0180986012703652E+00    1   1   1   1
  -1.2595965589927083E-01    2   1   1   1
   2.4503650782024204E-02    2   1   2   1
  -7.5161483988519752E-03    2   1   2   2
   2.6590927697398037E-01    2   2   1   1
  -7.5161483988520081E-03    2   2   2   1
   1.8813489151075408E-01    2   2   2   2
   1.0180986012703657E+00    3   3   1   1
  -1.2595965589927119E-01    3   3   2   1
   2.6590927697398026E-01    3   3   2   2
   1.0205620571221381E+00    3   3   3   3
   4.0692259073902344E-02    4   1   4   1
  -9.1800548476303947E-03    4   1   4   2
  -9.1800548476303825E-03    4   2   4   1
   7.6120112546779863E-03    4   2   4   2
   1.0180986012703657E+00    4   4   1   1
  -1.2595965589927119E-01    4   4   2   1
   2.6590927697398026E-01    4   4   2   2
   1.0131716895668228E+00    4   4   3   3
   1.0279524246774532E+00    4   4   4   4
  -4.0692259073902344E-02    5   1   3   1
   9.1800548476303947E-03    5   1   3   2
   9.1800548476303825E-03    5   2   3   1
  -7.6120112546779863E-03    5   2   3   2
   1.0180986012703657E+00    5   5   1   1
  -1.2595965589927119E-01    5   5   2   1
   2.6590927697398026E-01    5   5   2   2
   1.0205620571221381E+00    5   5   3   3
   1.0131716895668228E+00    5   5   4   4
   1.0205620571221381E+00    5   5   5   5
   8.1287133851631846E-02    6   1   1   1
  -1.6221885486481537E-02    6   1   2   1
   4.5305467202458290E-03    6   1   2   2
   8.1287133851631888E-02    6   1   3   3
   8.1287133851631888E-02    6   1   4   4
   8.1287133851631888E-02    6   1   5   5
   1.0767799651396053E-02    6   1   6   1
  -3.0986342721794529E-03    6   1   6   2
   2.1216708197682732E-03    6   1   6   6
  -8.0163165909396858E-02    6   2   1   1
   5.0927678858787573E-03    6   2   2   1
  -3.2411856989618383E-02    6   2   2   2
  -8.0163165909396900E-02    6   2   3   3
  -8.0163165909396900E-02    6   2   4   4
  -8.0163165909396900E-02    6   2   5   5
  -3.0986342721794624E-03    6   2   6   1
   1.4111669298463974E-02    6   2   6   2
  -1.0500682489757057E-02    6   2   6   6
  -2.6803196571813623E-03    6   3   3   1
   5.5269139597077738E-03    6   3   3   2
  -6.2477704574194571E-03    6   3   6   5
  -2.6803196571813623E-03    6   4   4   1
   5.5269139597077738E-03    6   4   4   2
   6.2477704574194571E-03    6   4   6   4
  -2.6803196571813623E-03    6   5   5   1
   5.5269139597077738E-03    6   5   5   2
  -6.2477704574194571E-03    6   5   6   3
   1.5449518396626849E-01    6   6   1   1
  -3.4746695816291013E-03    6   6   2   1
   1.2255232578968017E-01    6   6   2   2
   1.5449518396626855E-01    6   6   3   3
   1.5449518396626855E-01    6   6   4   4
   1.5449518396626855E-01    6   6   5   5
   2.1216708197682862E-03    6   6   6   1
  -1.0500682489757170E-02    6   6   6   2
   1.0011252889685154E-01    6   6   6   6
   9.1800548476303825E-03    7   1   5   1
  -7.6120112546779863E-03    7   1   5   2
   5.5269139597077938E-03    7   1   6   3
  -2.2931561284950674E-02    7   2   5   1
   1.7683286612482982E-04    7   2   5   2
   1.4299380724864304E-04    7   2   6   3
  -1.2595965589927088E-01    7   3   1   1
   2.4503650782024215E-02    7   3   2   1
  -7.5161483988519786E-03    7   3   2   2
  -1.2568034497191830E-01    7   3   3   3
  -1.2651827775397628E-01    7   3   4   4
  -1.2568034497191830E-01    7   3   5   5
  -1.6221885486481551E-02    7   3   6   1
   5.0927678858787503E-03    7   3   6   2
  -3.4746695816290506E-03    7   3   6   6
   2.5327567333970857E-02    7   3   7   3
  -7.2633244407008931E-03    7   3   7   7
   8.3793278205798521E-04    7   4   4   3
  -8.3793278205798521E-04    7   4   5   4
   1.6758655641159700E-03    7   5   5   3
  -9.7559266849008737E-03    7   6   5   1
   4.7610679484671684E-03    7   6   5   2
  -2.3054932757432356E-03    7   6   6   3
   2.6590927697398048E-01    7   7   1   1
  -7.5161483988520116E-03    7   7   2   1
   1.8813489151075416E-01    7   7   2   2
   2.6788923933530617E-01    7   7   3   3
   2.6194935225132959E-01    7   7   4   4
   2.6788923933530617E-01    7   7   5   5
   4.5305467202458411E-03    7   7   6   1
  -3.2411856989618459E-02    7   7   6   2
   1.2255232578968045E-01    7   7   6   6
  -7.2633244407009244E-03    7   7   7   3
   1.9011996208799994E-01    7   7   7   7
  -9.1800548476303825E-03    8   1   4   1
   7.6120112546779863E-03    8   1   4   2
   5.5269139597077938E-03    8   1   6   4
   7.6120112546779863E-03    8   1   8   1
  -1.7683286612483237E-04    8   1   8   2
  -4.7610679484671719E-03    8   1   8   6
   2.2931561284950674E-02    8   2   4   1
  -1.7683286612482982E-04    8   2   4   2
   1.4299380724864304E-04    8   2   6   4
  -1.7683286612482922E-04    8   2   8   1
   2.2041922325421754E-02    8   2   8   2
   1.8791747805517324E-03    8   2   8   6
   2.4717496558398738E-03    8   3   7   4
  -2.4717496558398738E-03    8   3   8   5
  -1.2595965589927088E-01    8   4   1   1
   2.4503650782024215E-02    8   4   2   1
  -7.5161483988519786E-03    8   4   2   2
  -1.2651827775397628E-01    8   4   3   3
  -1.2484241218986032E-01    8   4   4   4
  -1.2651827775397628E-01    8   4   5   5
  -1.6221885486481551E-02    8   4   6   1
   5.0927678858787503E-03    8   4   6   2
  -3.4746695816290506E-03    8   4   6   6
   2.2855817678130982E-02    8   4   7   3
  -8.0217963151541644E-03    8   4   7   7
   2.7799316989810731E-02    8   4   8   4
  -6.5048525662476219E-03    8   4   8   8
  -8.3793278205798521E-04    8   5   4   3
   8.3793278205798521E-04    8   5   5   4
  -2.4717496558398738E-03    8   5   8   3
  -7.5847187445327144E-04    8   5   8   7
   9.7559266849008737E-03    8   6   4   1
  -4.7610679484671684E-03    8   6   4   2
  -2.3054932757432356E-03    8   6   6   4
  -4.7610679484671684E-03    8   6   8   1
   1.8791747805517384E-03    8   6   8   2
   5.7460461529160595E-03    8   6   8   6
   7.5847187445327784E-04    8   7   7   4
  -7.5847187445327784E-04    8   7   8   5
   2.6590927697398048E-01    8   8   1   1
  -7.5161483988520116E-03    8   8   2   1
   1.8813489151075416E-01    8   8   2   2
   2.6194935225132959E-01    8   8   3   3
   2.7382912641928270E-01    8   8   4   4
   2.6194935225132959E-01    8   8   5   5
   4.5305467202458411E-03    8   8   6   1
  -3.2411856989618459E-02    8   8   6   2
   1.2255232578968045E-01    8   8   6   6
  -8.0217963151542025E-03    8   8   7   3
   1.8416475035626301E-01    8   8   7   7
  -6.5048525662476462E-03    8   8   8   4
   1.9607517381973685E-01    8   8   8   8
   9.1800548476303825E-03    9   1   3   1
  -7.6120112546779863E-03    9   1   3   2
   5.5269139597077938E-03    9   1   6   5
  -7.6120112546779863E-03    9   1   7   1
   1.7683286612483237E-04    9   1   7   2
   4.7610679484671719E-03    9   1   7   6
  -2.2931561284950674E-02    9   2   3   1
   1.7683286612482982E-04    9   2   3   2
   1.4299380724864304E-04    9   2   6   5
   1.7683286612482922E-04    9   2   7   1
  -2.2041922325421754E-02    9   2   7   2
  -1.8791747805517324E-03    9   2   7   6
   4.9434993116797468E-03    9   3   7   5
  -2.4717496558398738E-03    9   4   7   4
   2.4717496558398738E-03    9   4   8   5
  -1.2595965589927088E-01    9   5   1   1
   2.4503650782024215E-02    9   5   2   1
  -7.5161483988519786E-03    9   5   2   2
  -1.2568034497191830E-01    9   5   3   3
  -1.2651827775397628E-01    9   5   4   4
  -1.2568034497191830E-01    9   5   5   5
  -1.6221885486481551E-02    9   5   6   1
   5.0927678858787503E-03    9   5   6   2
  -3.4746695816290506E-03    9   5   6   6
   2.5327567333970857E-02    9   5   7   3
  -7.2633244407008931E-03    9   5   7   7
   2.2855817678130982E-02    9   5   8   4
  -8.0217963151541644E-03    9   5   8   8
   2.5327567333970857E-02    9   5   9   5
  -7.2633244407008931E-03    9   5   9   9
  -9.7559266849008737E-03    9   6   3   1
   4.7610679484671684E-03    9   6   3   2
  -2.3054932757432356E-03    9   6   6   5
   4.7610679484671684E-03    9   6   7   1
  -1.8791747805517384E-03    9   6   7   2
  -5.7460461529160595E-03    9   6   7   6
   1.5169437489065552E-03    9   7   7   5
  -7.5847187445327784E-04    9   8   7   4
   7.5847187445327784E-04    9   8   8   5
   2.6590927697398048E-01    9   9   1   1
  -7.5161483988520116E-03    9   9   2   1
   1.8813489151075416E-01    9   9   2   2
   2.6788923933530617E-01    9   9   3   3
   2.6194935225132959E-01    9   9   4   4
   2.6788923933530617E-01    9   9   5   5
   4.5305467202458411E-03    9   9   6   1
  -3.2411856989618459E-02    9   9   6   2
   1.2255232578968045E-01    9   9   6   6
  -7.2633244407009244E-03    9   9   7   3
   1.9011996208799994E-01    9   9   7   7
  -8.0217963151542025E-03    9   9   8   4
   1.8416475035626301E-01    9   9   8   8
  -7.2633244407009244E-03    9   9   9   5
   1.9011996208799994E-01    9   9   9   9
  -1.3492903394334708E-02   10   1   5   3
  -1.5298489546873989E-03   10   1   9   3
  -1.0844700483091796E-02   10   1   9   7
  -1.5298489546873943E-03   10   2   5   3
  -4.5127768100304295E-03   10   2   9   3
  -1.3847738495709426E-03   10   2   9   7
  -4.4576136421241183E-02   10   3   5   1
   1.0056246238363636E-02   10   3   5   2
  -2.9361430751254775E-03   10   3   6   3
   1.0056246238363636E-02   10   3   9   1
  -2.5120266789159285E-02   10   3   9   2
  -1.0687082229373604E-02   10   3   9   6
  -2.1774238526787587E-03   10   6   5   3
   9.5056264073029484E-04   10   6   9   3
   3.7119237026909149E-04   10   6   9   7
   1.0056246238363622E-02   10   7   5   1
  -8.3385405443406699E-03   10   7   5   2
   6.0544308982443153E-03   10   7   6   3
  -8.3385405443406699E-03   10   7   9   1
   1.9371069936972366E-04   10   7   9   2
   5.2154886263806269E-03   10   7   9   6
   1.0180986012703650E+00   10  10   1   1
  -1.2595965589927111E-01   10  10   2   1
   2.6590927697398009E-01   10  10   2   2
   1.0216178239157536E+00   10  10   3   3
   1.0110601559795891E+00   10  10   4   4
   1.0216178239157536E+00   10  10   5   5
   8.1287133851632346E-02   10  10   6   1
  -8.0163165909397052E-02   10  10   6   2
   1.5449518396626782E-01   10  10   6   6
  -1.2556064028876734E-01   10  10   7   3
   2.6873779463301667E-01   10  10   7   7
  -1.2675768712027877E-01   10  10   8   4
   2.6025224165590727E-01   10  10   8   8
  -1.2556064028876734E-01   10  10   9   5
   2.6873779463301667E-01   10  10   9   9
   1.0232261357118198E+00   10  10  10  10
   9.5409234880290579E-03   11   1   4   3
  -9.5409234880290579E-03   11   1   5   4
   1.0817665700506112E-03   11   1   8   3
   7.6683612515312388E-03   11   1   8   7
  -1.0817665700506112E-03   11   1   9   4
  -7.6683612515312388E-03   11   1   9   8
   9.6377881388105113E-03   11   1  11  10
   1.0817665700506081E-03   11   2   4   3
  -1.0817665700506081E-03   11   2   5   4
   3.1910150843539133E-03   11   2   8   3
   9.7918297944141371E-04   11   2   8   7
  -3.1910150843539133E-03   11   2   9   4
  -9.7918297944141371E-04   11   2   9   8
   1.0927492533481396E-03   11   2  11  10
   3.1520088342556277E-02   11   3   4   1
  -7.1108399084286360E-03   11   3   4   2
  -2.0761666789551477E-03   11   3   6   4
  -7.1108399084286360E-03   11   3   8   1
   1.7762710991829751E-02   11   3   8   2
   7.5569083154883214E-03   11   3   8   6
   2.6237100547237383E-02   11   3  11   3
  -5.4729577444170069E-03   11   3  11   7
  -3.1520088342556277E-02   11   4   5   1
   7.1108399084286360E-03   11   4   5   2
  -2.0761666789551477E-03   11   4   6   3
   7.1108399084286360E-03   11   4   9   1
  -1.7762710991829751E-02   11   4   9   2
  -7.5569083154883214E-03   11   4   9   6
   1.5396711717464886E-03   11   6   4   3
  -1.5396711717464886E-03   11   6   5   4
  -6.7214928920298353E-04   11   6   8   3
  -2.6247264214198247E-04   11   6   8   7
   6.7214928920298353E-04   11   6   9   4
   2.6247264214198247E-04   11   6   9   8
   1.5553027519134002E-03   11   6  11  10
  -7.1108399084286273E-03   11   7   4   1
   5.8962385641022526E-03   11   7   4   2
   4.2811291443739154E-03   11   7   6   4
   5.8962385641022526E-03   11   7   8   1
  -1.3697414911272027E-04   11   7   8   2
  -3.6879073749150532E-03   11   7   8   6
  -5.4729577444169999E-03   11   7  11   3
   5.1828124809251228E-03   11   7  11   7
   7.1108399084286273E-03   11   8   5   1
  -5.8962385641022526E-03   11   8   5   2
   4.2811291443739154E-03   11   8   6   3
  -5.8962385641022526E-03   11   8   9   1
   1.3697414911272027E-04   11   8   9   2
   3.6879073749150532E-03   11   8   9   6
   8.4643993195958941E-04   11  10   7   4
  -8.4643993195958941E-04   11  10   8   5
   9.6377881388105095E-03   11  10  11   1
   1.0927492533481429E-03   11  10  11   2
   1.5553027519134006E-03   11  10  11   6
   1.0180986012703650E+00   11  11   1   1
  -1.2595965589927111E-01   11  11   2   1
   2.6590927697398009E-01   11  11   2   2
   1.0163389899476714E+00   11  11   3   3
   1.0216178239157536E+00   11  11   4   4
   1.0163389899476714E+00   11  11   5   5
   8.1287133851632346E-02   11  11   6   1
  -8.0163165909397052E-02   11  11   6   2
   1.5449518396626782E-01   11  11   6   6
  -1.2615916370452307E-01   11  11   7   3
   2.6449501814446197E-01   11  11   7   7
  -1.2556064028876734E-01   11  11   8   4
   2.6873779463301667E-01   11  11   8   8
  -1.2615916370452307E-01   11  11   9   5
   2.6449501814446197E-01   11  11   9   9
   1.0151845767314849E+00   11  11  10  10
   1.0209566428124128E+00   11  11  11  11
  -5.5084547441312005E-03   12   1   3   3
   1.1016909488262401E-02   12   1   4   4
  -5.5084547441312005E-03   12   1   5   5
  -6.2455822041905865E-04   12   1   7   3
  -4.4273304328148570E-03   12   1   7   7
   1.2491164408381173E-03   12   1   8   4
   8.8546608656297141E-03   12   1   8   8
  -6.2455822041905865E-04   12   1   9   5
  -4.4273304328148570E-03   12   1   9   9
  -7.8692210630445722E-03   12   1  10  10
   3.9346105315222861E-03   12   1  11  11
   1.2317279258858569E-02   12   1  12   1
   1.3965546367633119E-03   12   1  12   2
   1.9877069356032703E-03   12   1  12   6
   7.8692210630445722E-03   12   1  12  12
  -6.2455822041905681E-04   12   2   3   3
   1.2491164408381136E-03   12   2   4   4
  -6.2455822041905681E-04   12   2   5   5
  -1.8423334179398887E-03   12   2   7   3
  -5.6533155676640010E-04   12   2   7   7
   3.6846668358797774E-03   12   2   8   4
   1.1306631135328002E-03   12   2   8   8
  -1.8423334179398887E-03   12   2   9   5
  -5.6533155676640010E-04   12   2   9   9
  -8.9222602917008115E-04   12   2  10  10
   4.4611301458504058E-04   12   2  11  11
   1.3965546367633076E-03   12   2  12   1
   4.1195827597331194E-03   12   2  12   2
  -8.6774100108276625E-04   12   2  12   6
   8.9222602917008115E-04   12   2  12  12
  -1.8198131489455656E-02   12   3   3   1
   4.1054453352956082E-03   12   3   3   2
  -1.1986753909772859E-03   12   3   6   5
   4.1054453352956082E-03   12   3   7   1
  -1.0255305972670435E-02   12   3   7   2
  -4.3629830501885052E-03   12   3   7   6
  -2.1422502890276293E-02   12   3  10   3
   4.4686512858784057E-03   12   3  10   7
  -9.8890719359434158E-03   12   3  11   4
   3.2610669043543908E-03   12   3  11   8
  -1.1781942020572419E-02   12   3  12   5
   1.7658606412036177E-03   12   3  12   9
   3.6396262978911312E-02   12   4   4   1
  -8.2108906705912164E-03   12   4   4   2
  -2.3973507819545718E-03   12   4   6   4
  -8.2108906705912164E-03   12   4   8   1
   2.0510611945340870E-02   12   4   8   2
   8.7259661003770105E-03   12   4   8   6
   2.5037068999646195E-02   12   4  11   3
  -6.4208805313569969E-03   12   4  11   7
   3.8019042567809809E-02   12   4  12   4
  -7.2388183856206259E-03   12   4  12   8
  -1.8198131489455656E-02   12   5   5   1
   4.1054453352956082E-03   12   5   5   2
  -1.1986753909772859E-03   12   5   6   3
   4.1054453352956082E-03   12   5   9   1
  -1.0255305972670435E-02   12   5   9   2
  -4.3629830501885052E-03   12   5   9   6
  -1.1781942020572419E-02   12   5  12   3
   1.7658606412036177E-03   12   5  12   7
  -8.8892956547134195E-04   12   6   3   3
   1.7778591309426839E-03   12   6   4   4
  -8.8892956547134195E-04   12   6   5   5
   3.8806557305695822E-04   12   6   7   3
   1.5153865059558592E-04   12   6   7   7
  -7.7613114611391643E-04   12   6   8   4
  -3.0307730119117184E-04   12   6   8   8
   3.8806557305695822E-04   12   6   9   5
   1.5153865059558592E-04   12   6   9   9
  -1.2698993792447742E-03   12   6  10  10
   6.3494968962238708E-04   12   6  11  11
   1.9877069356032694E-03   12   6  12   1
  -8.6774100108276907E-04   12   6  12   2
   2.4573020819320733E-03   12   6  12   6
   1.2698993792447742E-03   12   6  12  12
   4.1054453352956030E-03   12   7   3   1
  -3.4041949221906890E-03   12   7   3   2
   2.4717110639398323E-03   12   7   6   5
  -3.4041949221906890E-03   12   7   7   1
   7.9082061862249006E-05   12   7   7   2
   2.1292143156536126E-03   12   7   7   6
   4.4686512858784005E-03   12   7  10   3
  -4.2317486702649083E-03   12   7  10   7
   3.2610669043543869E-03   12   7  11   4
  -1.2151975168025043E-03   12   7  11   8
   1.7658606412036158E-03   12   7  12   5
  -2.7536137071722581E-03   12   7  12   9
  -8.2108906705912060E-03   12   8   4   1
   6.8083898443813779E-03   12   8   4   2
   4.9434221278796646E-03   12   8   6   4
   6.8083898443813779E-03   12   8   8   1
  -1.5816412372449801E-04   12   8   8   2
  -4.2584286313072251E-03   12   8   8   6
  -6.4208805313569891E-03   12   8  11   3
   4.2074956978239760E-03   12   8  11   7
  -7.2388183856206172E-03   12   8  12   4
   7.9364261880973813E-03   12   8  12   8
   4.1054453352956030E-03   12   9   5   1
  -3.4041949221906890E-03   12   9   5   2
   2.4717110639398323E-03   12   9   6   3
  -3.4041949221906890E-03   12   9   9   1
   7.9082061862249006E-05   12   9   9   2
   2.1292143156536126E-03   12   9   9   6
   1.7658606412036158E-03   12   9  12   3
  -2.7536137071722581E-03   12   9  12   7
   9.7738464513943447E-04   12  10   7   5
  -7.8692210630445722E-03   12  10  10   1
  -8.9222602917008397E-04   12  10  10   2
  -1.2698993792447746E-03   12  10  10   6
   3.4555765520285077E-04   12  11   7   4
  -3.4555765520285077E-04   12  11   8   5
   3.9346105315222861E-03   12  11  11   1
   4.4611301458504198E-04   12  11  11   2
   6.3494968962238729E-04   12  11  11   6
   1.0180986012703650E+00   12  12   1   1
  -1.2595965589927111E-01   12  12   2   1
   2.6590927697398009E-01   12  12   2   2
   1.0145793786249773E+00   12  12   3   3
   1.0251370465611418E+00   12  12   4   4
   1.0145793786249773E+00   12  12   5   5
   8.1287133851632346E-02   12  12   6   1
  -8.0163165909397052E-02   12  12   6   2
   1.5449518396626782E-01   12  12   6   6
  -1.2635867150977498E-01   12  12   7   3
   2.6308075931494374E-01   12  12   7   7
  -1.2516162467826356E-01   12  12   8   4
   2.7156631229205314E-01   12  12   8   8
  -1.2635867150977498E-01   12  12   9   5
   2.6308075931494374E-01   12  12   9   9
   1.0136715814652137E+00   12  12  10  10
   1.0182105672640274E+00   12  12  11  11
   7.8692210630445722E-03   12  12  12   1
   8.9222602917008397E-04   12  12  12   2
   1.2698993792447746E-03   12  12  12   6
   1.0267287088933410E+00   12  12  12  12
  -1.0817665700506112E-03   13   1   7   4
   1.0817665700506112E-03   13   1   8   5
  -1.2317279258858569E-02   13   1  11   1
  -1.3965546367633119E-03   13   1  11   2
  -1.9877069356032703E-03   13   1  11   6
  -3.1910150843539133E-03   13   2   7   4
   3.1910150843539133E-03   13   2   8   5
  -1.3965546367633076E-03   13   2  11   1
  -4.1195827597331194E-03   13   2  11   2
   8.6774100108276625E-04   13   2  11   6
  -4.2938943861704276E-03   13   3  10   4
  -8.2672954765459033E-05   13   3  10   8
   6.0724836763199150E-03   13   3  11   5
   1.1691721387076957E-04   13   3  11   9
  -3.1520088342556277E-02   13   4   3   1
   7.1108399084286360E-03   13   4   3   2
  -2.0761666789551477E-03   13   4   6   5
   7.1108399084286360E-03   13   4   7   1
  -1.7762710991829751E-02   13   4   7   2
  -7.5569083154883214E-03   13   4   7   6
  -3.2810969045079234E-02   13   4  10   3
   7.8226040232148523E-03   13   4  10   7
  -2.9273342385397340E-02   13   4  11   4
   5.4144991374816213E-03   13   4  11   8
  -9.8890719359434158E-03   13   4  12   5
   3.2610669043543917E-03   13   4  12   9
   3.1520088342556277E-02   13   5   4   1
  -7.1108399084286360E-03   13   5   4   2
  -2.0761666789551477E-03   13   5   6   4
  -7.1108399084286360E-03   13   5   8   1
   1.7762710991829751E-02   13   5   8   2
   7.5569083154883214E-03   13   5   8   6
   2.6237100547237383E-02   13   5  11   3
  -5.4729577444170069E-03   13   5  11   7
   2.5037068999646198E-02   13   5  12   4
  -6.4208805313569978E-03   13   5  12   8
   2.6237100547237383E-02   13   5  13   5
  -5.4729577444170069E-03   13   5  13   9
   6.7214928920298353E-04   13   6   7   4
  -6.7214928920298353E-04   13   6   8   5
  -1.9877069356032694E-03   13   6  11   1
   8.6774100108276907E-04   13   6  11   2
  -2.4573020819320733E-03   13   6  11   6
  -8.2672954765458938E-05   13   7  10   4
  -1.4509966162991783E-03   13   7  10   8
   1.1691721387076943E-04   13   7  11   5
   2.0520190937277677E-03   13   7  11   9
   7.1108399084286273E-03   13   8   3   1
  -5.8962385641022526E-03   13   8   3   2
   4.2811291443739154E-03   13   8   6   5
  -5.8962385641022526E-03   13   8   7   1
   1.3697414911272027E-04   13   8   7   2
   3.6879073749150532E-03   13   8   7   6
   7.8226040232148436E-03   13   8  10   3
  -5.8786070854616786E-03   13   8  10   7
   5.4144991374816152E-03   13   8  11   4
  -6.2088220277890065E-03   13   8  11   8
   3.2610669043543869E-03   13   8  12   5
  -1.2151975168025045E-03   13   8  12   9
  -7.1108399084286273E-03   13   9   4   1
   5.8962385641022526E-03   13   9   4   2
   4.2811291443739154E-03   13   9   6   4
   5.8962385641022526E-03   13   9   8   1
  -1.3697414911272027E-04   13   9   8   2
  -3.6879073749150532E-03   13   9   8   6
  -5.4729577444169999E-03   13   9  11   3
   5.1828124809251228E-03   13   9  11   7
  -6.4208805313569891E-03   13   9  12   4
   4.2074956978239769E-03   13   9  12   8
  -5.4729577444169999E-03   13   9  13   5
   5.1828124809251228E-03   13   9  13   9
   1.1970468315114112E-03   13  11   7   5
  -9.6377881388105095E-03   13  11  10   1
  -1.0927492533481429E-03   13  11  10   2
  -1.5553027519134006E-03   13  11  10   6
  -3.4555765520285077E-04   13  12   7   4
   3.4555765520285077E-04   13  12   8   5
  -3.9346105315222861E-03   13  12  11   1
  -4.4611301458504198E-04   13  12  11   2
  -6.3494968962238729E-04   13  12  11   6
   1.0180986012703650E+00   13  13   1   1
  -1.2595965589927111E-01   13  13   2   1
   2.6590927697398009E-01   13  13   2   2
   1.0163389899476714E+00   13  13   3   3
   1.0216178239157536E+00   13  13   4   4
   1.0163389899476714E+00   13  13   5   5
   8.1287133851632346E-02   13  13   6   1
  -8.0163165909397052E-02   13  13   6   2
   1.5449518396626782E-01   13  13   6   6
  -1.2615916370452307E-01   13  13   7   3
   2.6449501814446197E-01   13  13   7   7
  -1.2556064028876734E-01   13  13   8   4
   2.6873779463301667E-01   13  13   8   8
  -1.2615916370452307E-01   13  13   9   5
   2.6449501814446197E-01   13  13   9   9
   1.0151845767314849E+00   13  13  10  10
   1.0209566428124128E+00   13  13  11  11
   3.9346105315222861E-03   13  13  12   1
   4.4611301458504198E-04   13  13  12   2
   6.3494968962238729E-04   13  13  12   6
   1.0182105672640274E+00   13  13  12  12
   1.0209566428124128E+00   13  13  13  13
  -1.5298489546873989E-03   14   1   7   5
   1.2317279258858569E-02   14   1  10   1
   1.3965546367633119E-03   14   1  10   2
   1.9877069356032703E-03   14   1  10   6
  -4.5127768100304295E-03   14   2   7   5
   1.3965546367633076E-03   14   2  10   1
   4.1195827597331194E-03   14   2  10   2
  -8.6774100108276625E-04   14   2  10   6
  -9.1087255144798700E-03   14   3  10   5
  -1.7537582080615432E-04   14   3  10   9
   3.0362418381599580E-03   14   4  10   4
   5.8458606935384792E-05   14   4  10   8
  -4.2938943861704276E-03   14   4  11   5
  -8.2672954765459033E-05   14   4  11   9
  -4.4576136421241183E-02   14   5   3   1
   1.0056246238363636E-02   14   5   3   2
  -2.9361430751254775E-03   14   5   6   5
   1.0056246238363636E-02   14   5   7   1
  -2.5120266789159285E-02   14   5   7   2
  -1.0687082229373604E-02   14   5   7   6
  -4.9437959256314806E-02   14   5  10   3
   1.1004374095769398E-02   14   5  10   7
  -3.2810969045079234E-02   14   5  11   4
   7.8226040232148523E-03   14   5  11   8
  -2.1422502890276297E-02   14   5  12   5
   4.4686512858784066E-03   14   5  12   9
   9.5056264073029484E-04   14   6   7   5
   1.9877069356032694E-03   14   6  10   1
  -8.6774100108276907E-04   14   6  10   2
   2.4573020819320733E-03   14   6  10   6
  -1.7537582080615410E-04   14   7  10   5
  -3.0780286405916514E-03   14   7  10   9
   5.8458606935384724E-05   14   8  10   4
   1.0260095468638841E-03   14   8  10   8
  -8.2672954765458938E-05   14   8  11   5
  -1.4509966162991783E-03   14   8  11   9
   1.0056246238363622E-02   14   9   3   1
  -8.3385405443406699E-03   14   9   3   2
   6.0544308982443153E-03   14   9   6   5
  -8.3385405443406699E-03   14   9   7   1
   1.9371069936972366E-04   14   9   7   2
   5.2154886263806269E-03   14   9   7   6
   1.1004374095769385E-02   14   9  10   3
  -9.3396154149863603E-03   14   9  10   7
   7.8226040232148436E-03   14   9  11   4
  -5.8786070854616786E-03   14   9  11   8
   4.4686512858784005E-03   14   9  12   5
  -4.2317486702649083E-03   14   9  12   9
   9.7738464513943447E-04   14  12   7   5
  -7.8692210630445722E-03   14  12  10   1
  -8.9222602917008397E-04   14  12  10   2
  -1.2698993792447746E-03   14  12  10   6
  -8.4643993195958941E-04   14  13   7   4
   8.4643993195958941E-04   14  13   8   5
  -9.6377881388105095E-03   14  13  11   1
  -1.0927492533481429E-03   14  13  11   2
  -1.5553027519134006E-03   14  13  11   6
   1.0180986012703650E+00   14  14   1   1
  -1.2595965589927111E-01   14  14   2   1
   2.6590927697398009E-01   14  14   2   2
   1.0216178239157536E+00   14  14   3   3
   1.0110601559795891E+00   14  14   4   4
   1.0216178239157536E+00   14  14   5   5
   8.1287133851632346E-02   14  14   6   1
  -8.0163165909397052E-02   14  14   6   2
   1.5449518396626782E-01   14  14   6   6
  -1.2556064028876734E-01   14  14   7   3
   2.6873779463301667E-01   14  14   7   7
  -1.2675768712027877E-01   14  14   8   4
   2.6025224165590727E-01   14  14   8   8
  -1.2556064028876734E-01   14  14   9   5
   2.6873779463301667E-01   14  14   9   9
   1.0232261357118198E+00   14  14  10  10
   1.0151845767314849E+00   14  14  11  11
  -7.8692210630445722E-03   14  14  12   1
  -8.9222602917008397E-04   14  14  12   2
  -1.2698993792447746E-03   14  14  12   6
   1.0136715814652137E+00   14  14  12  12
   1.0151845767314849E+00   14  14  13  13
   1.0232261357118198E+00   14  14  14  14
   9.4436924744433326E-02   15   1   1   1
  -1.9274374031493822E-02   15   1   2   1
   5.0106713517206027E-03   15   1   2   2
   9.4436924744433368E-02   15   1   3   3
   9.4436924744433368E-02   15   1   4   4
   9.4436924744433368E-02   15   1   5   5
   1.2825558541127571E-02   15   1   6   1
  -3.4405965712592150E-03   15   1   6   2
   2.3612071133300842E-03   15   1   6   6
  -1.9274374031493829E-02   15   1   7   3
   5.0106713517206053E-03   15   1   7   7
  -1.9274374031493829E-02   15   1   8   4
   5.0106713517206053E-03   15   1   8   8
  -1.9274374031493829E-02   15   1   9   5
   5.0106713517206053E-03   15   1   9   9
   9.4436924744433298E-02   15   1  10  10
   9.4436924744433298E-02   15   1  11  11
   9.4436924744433312E-02   15   1  12  12
   9.4436924744433298E-02   15   1  13  13
   9.4436924744433298E-02   15   1  14  14
   1.5311799364875133E-02   15   1  15   1
  -4.2253147662976104E-03   15   1  15   2
   2.9004068922576466E-03   15   1  15   6
   3.5650165528071350E-03   15   1  15  15
  -7.1563345187703353E-02   15   2   1   1
   6.1660454056582719E-03   15   2   2   1
  -1.8686367914801424E-02   15   2   2   2
  -7.1563345187703381E-02   15   2   3   3
  -7.1563345187703381E-02   15   2   4   4
  -7.1563345187703381E-02   15   2   5   5
  -3.7865161646018206E-03   15   2   6   1
   1.1099067012948386E-02   15   2   6   2
  -5.7856947751213543E-03   15   2   6   6
   6.1660454056582745E-03   15   2   7   3
  -1.8686367914801431E-02   15   2   7   7
   6.1660454056582745E-03   15   2   8   4
  -1.8686367914801431E-02   15   2   8   8
   6.1660454056582745E-03   15   2   9   5
  -1.8686367914801431E-02   15   2   9   9
  -7.1563345187703339E-02   15   2  10  10
  -7.1563345187703339E-02   15   2  11  11
  -7.1563345187703339E-02   15   2  12  12
  -7.1563345187703339E-02   15   2  13  13
  -7.1563345187703339E-02   15   2  14  14
  -4.2253147662975792E-03   15   2  15   1
   1.0815313411486031E-02   15   2  15   2
  -6.7471407924111215E-03   15   2  15   6
  -7.7721608117573291E-03   15   2  15  15
  -9.5190051352194176E-04   15   3   3   1
  -2.2416541351402150E-03   15   3   3   2
   4.2818005962899988E-03   15   3   6   5
  -2.2416541351402159E-03   15   3   7   1
   5.9287863129849094E-04   15   3   7   2
   1.4235960187797114E-03   15   3   7   6
  -1.0427547675134379E-03   15   3  10   3
  -2.4556090718820603E-03   15   3  10   7
  -7.3733896722335374E-04   15   3  11   4
  -1.7363778266710091E-03   15   3  11   8
  -4.2570285121040405E-04   15   3  12   5
  -1.0024982056434045E-03   15   3  12   9
  -4.7210257124796371E-03   15   3  15   5
   2.2417927697858078E-03   15   3  15   9
  -9.5190051352194176E-04   15   4   4   1
  -2.2416541351402150E-03   15   4   4   2